ITEM: TIMESTEP
100
ITEM: NUMBER OF ATOMS
2
ITEM: BOX BOUNDS ff ff ff
-0.05 0.05
-0.05 0.05
0 0.1
ITEM: ATOMS id type mass x y z vx vy vz fx fy fz omegax omegay omegaz radius shapex shapey shapez quat1 quat2 quat3 quat4 blockiness1 blockiness2 tqx tqy tqz angmomx angmomy angmomz 
1 2 0.000307009 0 0 0.0101 0 0 0.1 0 0 0 0 0 0 0.00451537 0.002 0.002 0.004 0.92388 0.382683 0 0 10 10 0 0 0 0 0 0 
2 2 0.000307009 0 0 0.0899 0 0 -0.1 0 0 0 0 0 0 0.00451537 0.002 0.002 0.004 0.92388 -0.382683 0 0 10 10 0 0 0 0 0 0 
ITEM: TIMESTEP
200
ITEM: NUMBER OF ATOMS
2
ITEM: BOX BOUNDS ff ff ff
-0.05 0.05
-0.05 0.05
0 0.1
ITEM: ATOMS id type mass x y z vx vy vz fx fy fz omegax omegay omegaz radius shapex shapey shapez quat1 quat2 quat3 quat4 blockiness1 blockiness2 tqx tqy tqz angmomx angmomy angmomz 
1 2 0.000307009 0 0 0.0102 0 0 0.1 0 0 0 0 0 0 0.00451537 0.002 0.002 0.004 0.92388 0.382683 0 0 10 10 0 0 0 0 0 0 
2 2 0.000307009 0 0 0.0898 0 0 -0.1 0 0 0 0 0 0 0.00451537 0.002 0.002 0.004 0.92388 -0.382683 0 0 10 10 0 0 0 0 0 0 
ITEM: TIMESTEP
300
ITEM: NUMBER OF ATOMS
2
ITEM: BOX BOUNDS ff ff ff
-0.05 0.05
-0.05 0.05
0 0.1
ITEM: ATOMS id type mass x y z vx vy vz fx fy fz omegax omegay omegaz radius shapex shapey shapez quat1 quat2 quat3 quat4 blockiness1 blockiness2 tqx tqy tqz angmomx angmomy angmomz 
1 2 0.000307009 0 0 0.0103 0 0 0.1 0 0 0 0 0 0 0.00451537 0.002 0.002 0.004 0.92388 0.382683 0 0 10 10 0 0 0 0 0 0 
2 2 0.000307009 0 0 0.0897 0 0 -0.1 0 0 0 0 0 0 0.00451537 0.002 0.002 0.004 0.92388 -0.382683 0 0 10 10 0 0 0 0 0 0 
ITEM: TIMESTEP
400
ITEM: NUMBER OF ATOMS
2
ITEM: BOX BOUNDS ff ff ff
-0.05 0.05
-0.05 0.05
0 0.1
ITEM: ATOMS id type mass x y z vx vy vz fx fy fz omegax omegay omegaz radius shapex shapey shapez quat1 quat2 quat3 quat4 blockiness1 blockiness2 tqx tqy tqz angmomx angmomy angmomz 
1 2 0.000307009 0 0 0.0104 0 0 0.1 0 0 0 0 0 0 0.00451537 0.002 0.002 0.004 0.92388 0.382683 0 0 10 10 0 0 0 0 0 0 
2 2 0.000307009 0 0 0.0896 0 0 -0.1 0 0 0 0 0 0 0.00451537 0.002 0.002 0.004 0.92388 -0.382683 0 0 10 10 0 0 0 0 0 0 
ITEM: TIMESTEP
500
ITEM: NUMBER OF ATOMS
2
ITEM: BOX BOUNDS ff ff ff
-0.05 0.05
-0.05 0.05
0 0.1
ITEM: ATOMS id type mass x y z vx vy vz fx fy fz omegax omegay omegaz radius shapex shapey shapez quat1 quat2 quat3 quat4 blockiness1 blockiness2 tqx tqy tqz angmomx angmomy angmomz 
1 2 0.000307009 0 0 0.0105 0 0 0.1 0 0 0 0 0 0 0.00451537 0.002 0.002 0.004 0.92388 0.382683 0 0 10 10 0 0 0 0 0 0 
2 2 0.000307009 0 0 0.0895 0 0 -0.1 0 0 0 0 0 0 0.00451537 0.002 0.002 0.004 0.92388 -0.382683 0 0 10 10 0 0 0 0 0 0 
ITEM: TIMESTEP
600
ITEM: NUMBER OF ATOMS
2
ITEM: BOX BOUNDS ff ff ff
-0.05 0.05
-0.05 0.05
0 0.1
ITEM: ATOMS id type mass x y z vx vy vz fx fy fz omegax omegay omegaz radius shapex shapey shapez quat1 quat2 quat3 quat4 blockiness1 blockiness2 tqx tqy tqz angmomx angmomy angmomz 
1 2 0.000307009 0 0 0.0106 0 0 0.1 0 0 0 0 0 0 0.00451537 0.002 0.002 0.004 0.92388 0.382683 0 0 10 10 0 0 0 0 0 0 
2 2 0.000307009 0 0 0.0894 0 0 -0.1 0 0 0 0 0 0 0.00451537 0.002 0.002 0.004 0.92388 -0.382683 0 0 10 10 0 0 0 0 0 0 
ITEM: TIMESTEP
700
ITEM: NUMBER OF ATOMS
2
ITEM: BOX BOUNDS ff ff ff
-0.05 0.05
-0.05 0.05
0 0.1
ITEM: ATOMS id type mass x y z vx vy vz fx fy fz omegax omegay omegaz radius shapex shapey shapez quat1 quat2 quat3 quat4 blockiness1 blockiness2 tqx tqy tqz angmomx angmomy angmomz 
1 2 0.000307009 0 0 0.0107 0 0 0.1 0 0 0 0 0 0 0.00451537 0.002 0.002 0.004 0.92388 0.382683 0 0 10 10 0 0 0 0 0 0 
2 2 0.000307009 0 0 0.0893 0 0 -0.1 0 0 0 0 0 0 0.00451537 0.002 0.002 0.004 0.92388 -0.382683 0 0 10 10 0 0 0 0 0 0 
ITEM: TIMESTEP
800
ITEM: NUMBER OF ATOMS
2
ITEM: BOX BOUNDS ff ff ff
-0.05 0.05
-0.05 0.05
0 0.1
ITEM: ATOMS id type mass x y z vx vy vz fx fy fz omegax omegay omegaz radius shapex shapey shapez quat1 quat2 quat3 quat4 blockiness1 blockiness2 tqx tqy tqz angmomx angmomy angmomz 
1 2 0.000307009 0 0 0.0108 0 0 0.1 0 0 0 0 0 0 0.00451537 0.002 0.002 0.004 0.92388 0.382683 0 0 10 10 0 0 0 0 0 0 
2 2 0.000307009 0 0 0.0892 0 0 -0.1 0 0 0 0 0 0 0.00451537 0.002 0.002 0.004 0.92388 -0.382683 0 0 10 10 0 0 0 0 0 0 
ITEM: TIMESTEP
900
ITEM: NUMBER OF ATOMS
2
ITEM: BOX BOUNDS ff ff ff
-0.05 0.05
-0.05 0.05
0 0.1
ITEM: ATOMS id type mass x y z vx vy vz fx fy fz omegax omegay omegaz radius shapex shapey shapez quat1 quat2 quat3 quat4 blockiness1 blockiness2 tqx tqy tqz angmomx angmomy angmomz 
1 2 0.000307009 0 0 0.0109 0 0 0.1 0 0 0 0 0 0 0.00451537 0.002 0.002 0.004 0.92388 0.382683 0 0 10 10 0 0 0 0 0 0 
2 2 0.000307009 0 0 0.0891 0 0 -0.1 0 0 0 0 0 0 0.00451537 0.002 0.002 0.004 0.92388 -0.382683 0 0 10 10 0 0 0 0 0 0 
ITEM: TIMESTEP
1000
ITEM: NUMBER OF ATOMS
2
ITEM: BOX BOUNDS ff ff ff
-0.05 0.05
-0.05 0.05
0 0.1
ITEM: ATOMS id type mass x y z vx vy vz fx fy fz omegax omegay omegaz radius shapex shapey shapez quat1 quat2 quat3 quat4 blockiness1 blockiness2 tqx tqy tqz angmomx angmomy angmomz 
1 2 0.000307009 0 0 0.011 0 0 0.1 0 0 0 0 0 0 0.00451537 0.002 0.002 0.004 0.92388 0.382683 0 0 10 10 0 0 0 0 0 0 
2 2 0.000307009 0 0 0.089 0 0 -0.1 0 0 0 0 0 0 0.00451537 0.002 0.002 0.004 0.92388 -0.382683 0 0 10 10 0 0 0 0 0 0 
ITEM: TIMESTEP
1100
ITEM: NUMBER OF ATOMS
2
ITEM: BOX BOUNDS ff ff ff
-0.05 0.05
-0.05 0.05
0 0.1
ITEM: ATOMS id type mass x y z vx vy vz fx fy fz omegax omegay omegaz radius shapex shapey shapez quat1 quat2 quat3 quat4 blockiness1 blockiness2 tqx tqy tqz angmomx angmomy angmomz 
1 2 0.000307009 0 0 0.0111 0 0 0.1 0 0 0 0 0 0 0.00451537 0.002 0.002 0.004 0.92388 0.382683 0 0 10 10 0 0 0 0 0 0 
2 2 0.000307009 0 0 0.0889 0 0 -0.1 0 0 0 0 0 0 0.00451537 0.002 0.002 0.004 0.92388 -0.382683 0 0 10 10 0 0 0 0 0 0 
ITEM: TIMESTEP
1200
ITEM: NUMBER OF ATOMS
2
ITEM: BOX BOUNDS ff ff ff
-0.05 0.05
-0.05 0.05
0 0.1
ITEM: ATOMS id type mass x y z vx vy vz fx fy fz omegax omegay omegaz radius shapex shapey shapez quat1 quat2 quat3 quat4 blockiness1 blockiness2 tqx tqy tqz angmomx angmomy angmomz 
1 2 0.000307009 0 0 0.0112 0 0 0.1 0 0 0 0 0 0 0.00451537 0.002 0.002 0.004 0.92388 0.382683 0 0 10 10 0 0 0 0 0 0 
2 2 0.000307009 0 0 0.0888 0 0 -0.1 0 0 0 0 0 0 0.00451537 0.002 0.002 0.004 0.92388 -0.382683 0 0 10 10 0 0 0 0 0 0 
ITEM: TIMESTEP
1300
ITEM: NUMBER OF ATOMS
2
ITEM: BOX BOUNDS ff ff ff
-0.05 0.05
-0.05 0.05
0 0.1
ITEM: ATOMS id type mass x y z vx vy vz fx fy fz omegax omegay omegaz radius shapex shapey shapez quat1 quat2 quat3 quat4 blockiness1 blockiness2 tqx tqy tqz angmomx angmomy angmomz 
1 2 0.000307009 0 0 0.0113 0 0 0.1 0 0 0 0 0 0 0.00451537 0.002 0.002 0.004 0.92388 0.382683 0 0 10 10 0 0 0 0 0 0 
2 2 0.000307009 0 0 0.0887 0 0 -0.1 0 0 0 0 0 0 0.00451537 0.002 0.002 0.004 0.92388 -0.382683 0 0 10 10 0 0 0 0 0 0 
ITEM: TIMESTEP
1400
ITEM: NUMBER OF ATOMS
2
ITEM: BOX BOUNDS ff ff ff
-0.05 0.05
-0.05 0.05
0 0.1
ITEM: ATOMS id type mass x y z vx vy vz fx fy fz omegax omegay omegaz radius shapex shapey shapez quat1 quat2 quat3 quat4 blockiness1 blockiness2 tqx tqy tqz angmomx angmomy angmomz 
1 2 0.000307009 0 0 0.0114 0 0 0.1 0 0 0 0 0 0 0.00451537 0.002 0.002 0.004 0.92388 0.382683 0 0 10 10 0 0 0 0 0 0 
2 2 0.000307009 0 0 0.0886 0 0 -0.1 0 0 0 0 0 0 0.00451537 0.002 0.002 0.004 0.92388 -0.382683 0 0 10 10 0 0 0 0 0 0 
ITEM: TIMESTEP
1500
ITEM: NUMBER OF ATOMS
2
ITEM: BOX BOUNDS ff ff ff
-0.05 0.05
-0.05 0.05
0 0.1
ITEM: ATOMS id type mass x y z vx vy vz fx fy fz omegax omegay omegaz radius shapex shapey shapez quat1 quat2 quat3 quat4 blockiness1 blockiness2 tqx tqy tqz angmomx angmomy angmomz 
1 2 0.000307009 0 0 0.0115 0 0 0.1 0 0 0 0 0 0 0.00451537 0.002 0.002 0.004 0.92388 0.382683 0 0 10 10 0 0 0 0 0 0 
2 2 0.000307009 0 0 0.0885 0 0 -0.1 0 0 0 0 0 0 0.00451537 0.002 0.002 0.004 0.92388 -0.382683 0 0 10 10 0 0 0 0 0 0 
ITEM: TIMESTEP
1600
ITEM: NUMBER OF ATOMS
2
ITEM: BOX BOUNDS ff ff ff
-0.05 0.05
-0.05 0.05
0 0.1
ITEM: ATOMS id type mass x y z vx vy vz fx fy fz omegax omegay omegaz radius shapex shapey shapez quat1 quat2 quat3 quat4 blockiness1 blockiness2 tqx tqy tqz angmomx angmomy angmomz 
1 2 0.000307009 0 0 0.0116 0 0 0.1 0 0 0 0 0 0 0.00451537 0.002 0.002 0.004 0.92388 0.382683 0 0 10 10 0 0 0 0 0 0 
2 2 0.000307009 0 0 0.0884 0 0 -0.1 0 0 0 0 0 0 0.00451537 0.002 0.002 0.004 0.92388 -0.382683 0 0 10 10 0 0 0 0 0 0 
ITEM: TIMESTEP
1700
ITEM: NUMBER OF ATOMS
2
ITEM: BOX BOUNDS ff ff ff
-0.05 0.05
-0.05 0.05
0 0.1
ITEM: ATOMS id type mass x y z vx vy vz fx fy fz omegax omegay omegaz radius shapex shapey shapez quat1 quat2 quat3 quat4 blockiness1 blockiness2 tqx tqy tqz angmomx angmomy angmomz 
1 2 0.000307009 0 0 0.0117 0 0 0.1 0 0 0 0 0 0 0.00451537 0.002 0.002 0.004 0.92388 0.382683 0 0 10 10 0 0 0 0 0 0 
2 2 0.000307009 0 0 0.0883 0 0 -0.1 0 0 0 0 0 0 0.00451537 0.002 0.002 0.004 0.92388 -0.382683 0 0 10 10 0 0 0 0 0 0 
ITEM: TIMESTEP
1800
ITEM: NUMBER OF ATOMS
2
ITEM: BOX BOUNDS ff ff ff
-0.05 0.05
-0.05 0.05
0 0.1
ITEM: ATOMS id type mass x y z vx vy vz fx fy fz omegax omegay omegaz radius shapex shapey shapez quat1 quat2 quat3 quat4 blockiness1 blockiness2 tqx tqy tqz angmomx angmomy angmomz 
1 2 0.000307009 0 0 0.0118 0 0 0.1 0 0 0 0 0 0 0.00451537 0.002 0.002 0.004 0.92388 0.382683 0 0 10 10 0 0 0 0 0 0 
2 2 0.000307009 0 0 0.0882 0 0 -0.1 0 0 0 0 0 0 0.00451537 0.002 0.002 0.004 0.92388 -0.382683 0 0 10 10 0 0 0 0 0 0 
ITEM: TIMESTEP
1900
ITEM: NUMBER OF ATOMS
2
ITEM: BOX BOUNDS ff ff ff
-0.05 0.05
-0.05 0.05
0 0.1
ITEM: ATOMS id type mass x y z vx vy vz fx fy fz omegax omegay omegaz radius shapex shapey shapez quat1 quat2 quat3 quat4 blockiness1 blockiness2 tqx tqy tqz angmomx angmomy angmomz 
1 2 0.000307009 0 0 0.0119 0 0 0.1 0 0 0 0 0 0 0.00451537 0.002 0.002 0.004 0.92388 0.382683 0 0 10 10 0 0 0 0 0 0 
2 2 0.000307009 0 0 0.0881 0 0 -0.1 0 0 0 0 0 0 0.00451537 0.002 0.002 0.004 0.92388 -0.382683 0 0 10 10 0 0 0 0 0 0 
ITEM: TIMESTEP
2000
ITEM: NUMBER OF ATOMS
2
ITEM: BOX BOUNDS ff ff ff
-0.05 0.05
-0.05 0.05
0 0.1
ITEM: ATOMS id type mass x y z vx vy vz fx fy fz omegax omegay omegaz radius shapex shapey shapez quat1 quat2 quat3 quat4 blockiness1 blockiness2 tqx tqy tqz angmomx angmomy angmomz 
1 2 0.000307009 0 0 0.012 0 0 0.1 0 0 0 0 0 0 0.00451537 0.002 0.002 0.004 0.92388 0.382683 0 0 10 10 0 0 0 0 0 0 
2 2 0.000307009 0 0 0.088 0 0 -0.1 0 0 0 0 0 0 0.00451537 0.002 0.002 0.004 0.92388 -0.382683 0 0 10 10 0 0 0 0 0 0 
ITEM: TIMESTEP
2100
ITEM: NUMBER OF ATOMS
2
ITEM: BOX BOUNDS ff ff ff
-0.05 0.05
-0.05 0.05
0 0.1
ITEM: ATOMS id type mass x y z vx vy vz fx fy fz omegax omegay omegaz radius shapex shapey shapez quat1 quat2 quat3 quat4 blockiness1 blockiness2 tqx tqy tqz angmomx angmomy angmomz 
1 2 0.000307009 0 0 0.0121 0 0 0.1 0 0 0 0 0 0 0.00451537 0.002 0.002 0.004 0.92388 0.382683 0 0 10 10 0 0 0 0 0 0 
2 2 0.000307009 0 0 0.0879 0 0 -0.1 0 0 0 0 0 0 0.00451537 0.002 0.002 0.004 0.92388 -0.382683 0 0 10 10 0 0 0 0 0 0 
ITEM: TIMESTEP
2200
ITEM: NUMBER OF ATOMS
2
ITEM: BOX BOUNDS ff ff ff
-0.05 0.05
-0.05 0.05
0 0.1
ITEM: ATOMS id type mass x y z vx vy vz fx fy fz omegax omegay omegaz radius shapex shapey shapez quat1 quat2 quat3 quat4 blockiness1 blockiness2 tqx tqy tqz angmomx angmomy angmomz 
1 2 0.000307009 0 0 0.0122 0 0 0.1 0 0 0 0 0 0 0.00451537 0.002 0.002 0.004 0.92388 0.382683 0 0 10 10 0 0 0 0 0 0 
2 2 0.000307009 0 0 0.0878 0 0 -0.1 0 0 0 0 0 0 0.00451537 0.002 0.002 0.004 0.92388 -0.382683 0 0 10 10 0 0 0 0 0 0 
ITEM: TIMESTEP
2300
ITEM: NUMBER OF ATOMS
2
ITEM: BOX BOUNDS ff ff ff
-0.05 0.05
-0.05 0.05
0 0.1
ITEM: ATOMS id type mass x y z vx vy vz fx fy fz omegax omegay omegaz radius shapex shapey shapez quat1 quat2 quat3 quat4 blockiness1 blockiness2 tqx tqy tqz angmomx angmomy angmomz 
1 2 0.000307009 0 0 0.0123 0 0 0.1 0 0 0 0 0 0 0.00451537 0.002 0.002 0.004 0.92388 0.382683 0 0 10 10 0 0 0 0 0 0 
2 2 0.000307009 0 0 0.0877 0 0 -0.1 0 0 0 0 0 0 0.00451537 0.002 0.002 0.004 0.92388 -0.382683 0 0 10 10 0 0 0 0 0 0 
ITEM: TIMESTEP
2400
ITEM: NUMBER OF ATOMS
2
ITEM: BOX BOUNDS ff ff ff
-0.05 0.05
-0.05 0.05
0 0.1
ITEM: ATOMS id type mass x y z vx vy vz fx fy fz omegax omegay omegaz radius shapex shapey shapez quat1 quat2 quat3 quat4 blockiness1 blockiness2 tqx tqy tqz angmomx angmomy angmomz 
1 2 0.000307009 0 0 0.0124 0 0 0.1 0 0 0 0 0 0 0.00451537 0.002 0.002 0.004 0.92388 0.382683 0 0 10 10 0 0 0 0 0 0 
2 2 0.000307009 0 0 0.0876 0 0 -0.1 0 0 0 0 0 0 0.00451537 0.002 0.002 0.004 0.92388 -0.382683 0 0 10 10 0 0 0 0 0 0 
ITEM: TIMESTEP
2500
ITEM: NUMBER OF ATOMS
2
ITEM: BOX BOUNDS ff ff ff
-0.05 0.05
-0.05 0.05
0 0.1
ITEM: ATOMS id type mass x y z vx vy vz fx fy fz omegax omegay omegaz radius shapex shapey shapez quat1 quat2 quat3 quat4 blockiness1 blockiness2 tqx tqy tqz angmomx angmomy angmomz 
1 2 0.000307009 0 0 0.0125 0 0 0.1 0 0 0 0 0 0 0.00451537 0.002 0.002 0.004 0.92388 0.382683 0 0 10 10 0 0 0 0 0 0 
2 2 0.000307009 0 0 0.0875 0 0 -0.1 0 0 0 0 0 0 0.00451537 0.002 0.002 0.004 0.92388 -0.382683 0 0 10 10 0 0 0 0 0 0 
ITEM: TIMESTEP
2600
ITEM: NUMBER OF ATOMS
2
ITEM: BOX BOUNDS ff ff ff
-0.05 0.05
-0.05 0.05
0 0.1
ITEM: ATOMS id type mass x y z vx vy vz fx fy fz omegax omegay omegaz radius shapex shapey shapez quat1 quat2 quat3 quat4 blockiness1 blockiness2 tqx tqy tqz angmomx angmomy angmomz 
1 2 0.000307009 0 0 0.0126 0 0 0.1 0 0 0 0 0 0 0.00451537 0.002 0.002 0.004 0.92388 0.382683 0 0 10 10 0 0 0 0 0 0 
2 2 0.000307009 0 0 0.0874 0 0 -0.1 0 0 0 0 0 0 0.00451537 0.002 0.002 0.004 0.92388 -0.382683 0 0 10 10 0 0 0 0 0 0 
ITEM: TIMESTEP
2700
ITEM: NUMBER OF ATOMS
2
ITEM: BOX BOUNDS ff ff ff
-0.05 0.05
-0.05 0.05
0 0.1
ITEM: ATOMS id type mass x y z vx vy vz fx fy fz omegax omegay omegaz radius shapex shapey shapez quat1 quat2 quat3 quat4 blockiness1 blockiness2 tqx tqy tqz angmomx angmomy angmomz 
1 2 0.000307009 0 0 0.0127 0 0 0.1 0 0 0 0 0 0 0.00451537 0.002 0.002 0.004 0.92388 0.382683 0 0 10 10 0 0 0 0 0 0 
2 2 0.000307009 0 0 0.0873 0 0 -0.1 0 0 0 0 0 0 0.00451537 0.002 0.002 0.004 0.92388 -0.382683 0 0 10 10 0 0 0 0 0 0 
ITEM: TIMESTEP
2800
ITEM: NUMBER OF ATOMS
2
ITEM: BOX BOUNDS ff ff ff
-0.05 0.05
-0.05 0.05
0 0.1
ITEM: ATOMS id type mass x y z vx vy vz fx fy fz omegax omegay omegaz radius shapex shapey shapez quat1 quat2 quat3 quat4 blockiness1 blockiness2 tqx tqy tqz angmomx angmomy angmomz 
1 2 0.000307009 0 0 0.0128 0 0 0.1 0 0 0 0 0 0 0.00451537 0.002 0.002 0.004 0.92388 0.382683 0 0 10 10 0 0 0 0 0 0 
2 2 0.000307009 0 0 0.0872 0 0 -0.1 0 0 0 0 0 0 0.00451537 0.002 0.002 0.004 0.92388 -0.382683 0 0 10 10 0 0 0 0 0 0 
ITEM: TIMESTEP
2900
ITEM: NUMBER OF ATOMS
2
ITEM: BOX BOUNDS ff ff ff
-0.05 0.05
-0.05 0.05
0 0.1
ITEM: ATOMS id type mass x y z vx vy vz fx fy fz omegax omegay omegaz radius shapex shapey shapez quat1 quat2 quat3 quat4 blockiness1 blockiness2 tqx tqy tqz angmomx angmomy angmomz 
1 2 0.000307009 0 0 0.0129 0 0 0.1 0 0 0 0 0 0 0.00451537 0.002 0.002 0.004 0.92388 0.382683 0 0 10 10 0 0 0 0 0 0 
2 2 0.000307009 0 0 0.0871 0 0 -0.1 0 0 0 0 0 0 0.00451537 0.002 0.002 0.004 0.92388 -0.382683 0 0 10 10 0 0 0 0 0 0 
ITEM: TIMESTEP
3000
ITEM: NUMBER OF ATOMS
2
ITEM: BOX BOUNDS ff ff ff
-0.05 0.05
-0.05 0.05
0 0.1
ITEM: ATOMS id type mass x y z vx vy vz fx fy fz omegax omegay omegaz radius shapex shapey shapez quat1 quat2 quat3 quat4 blockiness1 blockiness2 tqx tqy tqz angmomx angmomy angmomz 
1 2 0.000307009 0 0 0.013 0 0 0.1 0 0 0 0 0 0 0.00451537 0.002 0.002 0.004 0.92388 0.382683 0 0 10 10 0 0 0 0 0 0 
2 2 0.000307009 0 0 0.087 0 0 -0.1 0 0 0 0 0 0 0.00451537 0.002 0.002 0.004 0.92388 -0.382683 0 0 10 10 0 0 0 0 0 0 
ITEM: TIMESTEP
3100
ITEM: NUMBER OF ATOMS
2
ITEM: BOX BOUNDS ff ff ff
-0.05 0.05
-0.05 0.05
0 0.1
ITEM: ATOMS id type mass x y z vx vy vz fx fy fz omegax omegay omegaz radius shapex shapey shapez quat1 quat2 quat3 quat4 blockiness1 blockiness2 tqx tqy tqz angmomx angmomy angmomz 
1 2 0.000307009 0 0 0.0131 0 0 0.1 0 0 0 0 0 0 0.00451537 0.002 0.002 0.004 0.92388 0.382683 0 0 10 10 0 0 0 0 0 0 
2 2 0.000307009 0 0 0.0869 0 0 -0.1 0 0 0 0 0 0 0.00451537 0.002 0.002 0.004 0.92388 -0.382683 0 0 10 10 0 0 0 0 0 0 
ITEM: TIMESTEP
3200
ITEM: NUMBER OF ATOMS
2
ITEM: BOX BOUNDS ff ff ff
-0.05 0.05
-0.05 0.05
0 0.1
ITEM: ATOMS id type mass x y z vx vy vz fx fy fz omegax omegay omegaz radius shapex shapey shapez quat1 quat2 quat3 quat4 blockiness1 blockiness2 tqx tqy tqz angmomx angmomy angmomz 
1 2 0.000307009 0 0 0.0132 0 0 0.1 0 0 0 0 0 0 0.00451537 0.002 0.002 0.004 0.92388 0.382683 0 0 10 10 0 0 0 0 0 0 
2 2 0.000307009 0 0 0.0868 0 0 -0.1 0 0 0 0 0 0 0.00451537 0.002 0.002 0.004 0.92388 -0.382683 0 0 10 10 0 0 0 0 0 0 
ITEM: TIMESTEP
3300
ITEM: NUMBER OF ATOMS
2
ITEM: BOX BOUNDS ff ff ff
-0.05 0.05
-0.05 0.05
0 0.1
ITEM: ATOMS id type mass x y z vx vy vz fx fy fz omegax omegay omegaz radius shapex shapey shapez quat1 quat2 quat3 quat4 blockiness1 blockiness2 tqx tqy tqz angmomx angmomy angmomz 
1 2 0.000307009 0 0 0.0133 0 0 0.1 0 0 0 0 0 0 0.00451537 0.002 0.002 0.004 0.92388 0.382683 0 0 10 10 0 0 0 0 0 0 
2 2 0.000307009 0 0 0.0867 0 0 -0.1 0 0 0 0 0 0 0.00451537 0.002 0.002 0.004 0.92388 -0.382683 0 0 10 10 0 0 0 0 0 0 
ITEM: TIMESTEP
3400
ITEM: NUMBER OF ATOMS
2
ITEM: BOX BOUNDS ff ff ff
-0.05 0.05
-0.05 0.05
0 0.1
ITEM: ATOMS id type mass x y z vx vy vz fx fy fz omegax omegay omegaz radius shapex shapey shapez quat1 quat2 quat3 quat4 blockiness1 blockiness2 tqx tqy tqz angmomx angmomy angmomz 
1 2 0.000307009 0 0 0.0134 0 0 0.1 0 0 0 0 0 0 0.00451537 0.002 0.002 0.004 0.92388 0.382683 0 0 10 10 0 0 0 0 0 0 
2 2 0.000307009 0 0 0.0866 0 0 -0.1 0 0 0 0 0 0 0.00451537 0.002 0.002 0.004 0.92388 -0.382683 0 0 10 10 0 0 0 0 0 0 
ITEM: TIMESTEP
3500
ITEM: NUMBER OF ATOMS
2
ITEM: BOX BOUNDS ff ff ff
-0.05 0.05
-0.05 0.05
0 0.1
ITEM: ATOMS id type mass x y z vx vy vz fx fy fz omegax omegay omegaz radius shapex shapey shapez quat1 quat2 quat3 quat4 blockiness1 blockiness2 tqx tqy tqz angmomx angmomy angmomz 
1 2 0.000307009 0 0 0.0135 0 0 0.1 0 0 0 0 0 0 0.00451537 0.002 0.002 0.004 0.92388 0.382683 0 0 10 10 0 0 0 0 0 0 
2 2 0.000307009 0 0 0.0865 0 0 -0.1 0 0 0 0 0 0 0.00451537 0.002 0.002 0.004 0.92388 -0.382683 0 0 10 10 0 0 0 0 0 0 
ITEM: TIMESTEP
3600
ITEM: NUMBER OF ATOMS
2
ITEM: BOX BOUNDS ff ff ff
-0.05 0.05
-0.05 0.05
0 0.1
ITEM: ATOMS id type mass x y z vx vy vz fx fy fz omegax omegay omegaz radius shapex shapey shapez quat1 quat2 quat3 quat4 blockiness1 blockiness2 tqx tqy tqz angmomx angmomy angmomz 
1 2 0.000307009 0 0 0.0136 0 0 0.1 0 0 0 0 0 0 0.00451537 0.002 0.002 0.004 0.92388 0.382683 0 0 10 10 0 0 0 0 0 0 
2 2 0.000307009 0 0 0.0864 0 0 -0.1 0 0 0 0 0 0 0.00451537 0.002 0.002 0.004 0.92388 -0.382683 0 0 10 10 0 0 0 0 0 0 
ITEM: TIMESTEP
3700
ITEM: NUMBER OF ATOMS
2
ITEM: BOX BOUNDS ff ff ff
-0.05 0.05
-0.05 0.05
0 0.1
ITEM: ATOMS id type mass x y z vx vy vz fx fy fz omegax omegay omegaz radius shapex shapey shapez quat1 quat2 quat3 quat4 blockiness1 blockiness2 tqx tqy tqz angmomx angmomy angmomz 
1 2 0.000307009 0 0 0.0137 0 0 0.1 0 0 0 0 0 0 0.00451537 0.002 0.002 0.004 0.92388 0.382683 0 0 10 10 0 0 0 0 0 0 
2 2 0.000307009 0 0 0.0863 0 0 -0.1 0 0 0 0 0 0 0.00451537 0.002 0.002 0.004 0.92388 -0.382683 0 0 10 10 0 0 0 0 0 0 
ITEM: TIMESTEP
3800
ITEM: NUMBER OF ATOMS
2
ITEM: BOX BOUNDS ff ff ff
-0.05 0.05
-0.05 0.05
0 0.1
ITEM: ATOMS id type mass x y z vx vy vz fx fy fz omegax omegay omegaz radius shapex shapey shapez quat1 quat2 quat3 quat4 blockiness1 blockiness2 tqx tqy tqz angmomx angmomy angmomz 
1 2 0.000307009 0 0 0.0138 0 0 0.1 0 0 0 0 0 0 0.00451537 0.002 0.002 0.004 0.92388 0.382683 0 0 10 10 0 0 0 0 0 0 
2 2 0.000307009 0 0 0.0862 0 0 -0.1 0 0 0 0 0 0 0.00451537 0.002 0.002 0.004 0.92388 -0.382683 0 0 10 10 0 0 0 0 0 0 
ITEM: TIMESTEP
3900
ITEM: NUMBER OF ATOMS
2
ITEM: BOX BOUNDS ff ff ff
-0.05 0.05
-0.05 0.05
0 0.1
ITEM: ATOMS id type mass x y z vx vy vz fx fy fz omegax omegay omegaz radius shapex shapey shapez quat1 quat2 quat3 quat4 blockiness1 blockiness2 tqx tqy tqz angmomx angmomy angmomz 
1 2 0.000307009 0 0 0.0139 0 0 0.1 0 0 0 0 0 0 0.00451537 0.002 0.002 0.004 0.92388 0.382683 0 0 10 10 0 0 0 0 0 0 
2 2 0.000307009 0 0 0.0861 0 0 -0.1 0 0 0 0 0 0 0.00451537 0.002 0.002 0.004 0.92388 -0.382683 0 0 10 10 0 0 0 0 0 0 
ITEM: TIMESTEP
4000
ITEM: NUMBER OF ATOMS
2
ITEM: BOX BOUNDS ff ff ff
-0.05 0.05
-0.05 0.05
0 0.1
ITEM: ATOMS id type mass x y z vx vy vz fx fy fz omegax omegay omegaz radius shapex shapey shapez quat1 quat2 quat3 quat4 blockiness1 blockiness2 tqx tqy tqz angmomx angmomy angmomz 
1 2 0.000307009 0 0 0.014 0 0 0.1 0 0 0 0 0 0 0.00451537 0.002 0.002 0.004 0.92388 0.382683 0 0 10 10 0 0 0 0 0 0 
2 2 0.000307009 0 0 0.086 0 0 -0.1 0 0 0 0 0 0 0.00451537 0.002 0.002 0.004 0.92388 -0.382683 0 0 10 10 0 0 0 0 0 0 
ITEM: TIMESTEP
4100
ITEM: NUMBER OF ATOMS
2
ITEM: BOX BOUNDS ff ff ff
-0.05 0.05
-0.05 0.05
0 0.1
ITEM: ATOMS id type mass x y z vx vy vz fx fy fz omegax omegay omegaz radius shapex shapey shapez quat1 quat2 quat3 quat4 blockiness1 blockiness2 tqx tqy tqz angmomx angmomy angmomz 
1 2 0.000307009 0 0 0.0141 0 0 0.1 0 0 0 0 0 0 0.00451537 0.002 0.002 0.004 0.92388 0.382683 0 0 10 10 0 0 0 0 0 0 
2 2 0.000307009 0 0 0.0859 0 0 -0.1 0 0 0 0 0 0 0.00451537 0.002 0.002 0.004 0.92388 -0.382683 0 0 10 10 0 0 0 0 0 0 
ITEM: TIMESTEP
4200
ITEM: NUMBER OF ATOMS
2
ITEM: BOX BOUNDS ff ff ff
-0.05 0.05
-0.05 0.05
0 0.1
ITEM: ATOMS id type mass x y z vx vy vz fx fy fz omegax omegay omegaz radius shapex shapey shapez quat1 quat2 quat3 quat4 blockiness1 blockiness2 tqx tqy tqz angmomx angmomy angmomz 
1 2 0.000307009 0 0 0.0142 0 0 0.1 0 0 0 0 0 0 0.00451537 0.002 0.002 0.004 0.92388 0.382683 0 0 10 10 0 0 0 0 0 0 
2 2 0.000307009 0 0 0.0858 0 0 -0.1 0 0 0 0 0 0 0.00451537 0.002 0.002 0.004 0.92388 -0.382683 0 0 10 10 0 0 0 0 0 0 
ITEM: TIMESTEP
4300
ITEM: NUMBER OF ATOMS
2
ITEM: BOX BOUNDS ff ff ff
-0.05 0.05
-0.05 0.05
0 0.1
ITEM: ATOMS id type mass x y z vx vy vz fx fy fz omegax omegay omegaz radius shapex shapey shapez quat1 quat2 quat3 quat4 blockiness1 blockiness2 tqx tqy tqz angmomx angmomy angmomz 
1 2 0.000307009 0 0 0.0143 0 0 0.1 0 0 0 0 0 0 0.00451537 0.002 0.002 0.004 0.92388 0.382683 0 0 10 10 0 0 0 0 0 0 
2 2 0.000307009 0 0 0.0857 0 0 -0.1 0 0 0 0 0 0 0.00451537 0.002 0.002 0.004 0.92388 -0.382683 0 0 10 10 0 0 0 0 0 0 
ITEM: TIMESTEP
4400
ITEM: NUMBER OF ATOMS
2
ITEM: BOX BOUNDS ff ff ff
-0.05 0.05
-0.05 0.05
0 0.1
ITEM: ATOMS id type mass x y z vx vy vz fx fy fz omegax omegay omegaz radius shapex shapey shapez quat1 quat2 quat3 quat4 blockiness1 blockiness2 tqx tqy tqz angmomx angmomy angmomz 
1 2 0.000307009 0 0 0.0144 0 0 0.1 0 0 0 0 0 0 0.00451537 0.002 0.002 0.004 0.92388 0.382683 0 0 10 10 0 0 0 0 0 0 
2 2 0.000307009 0 0 0.0856 0 0 -0.1 0 0 0 0 0 0 0.00451537 0.002 0.002 0.004 0.92388 -0.382683 0 0 10 10 0 0 0 0 0 0 
ITEM: TIMESTEP
4500
ITEM: NUMBER OF ATOMS
2
ITEM: BOX BOUNDS ff ff ff
-0.05 0.05
-0.05 0.05
0 0.1
ITEM: ATOMS id type mass x y z vx vy vz fx fy fz omegax omegay omegaz radius shapex shapey shapez quat1 quat2 quat3 quat4 blockiness1 blockiness2 tqx tqy tqz angmomx angmomy angmomz 
1 2 0.000307009 0 0 0.0145 0 0 0.1 0 0 0 0 0 0 0.00451537 0.002 0.002 0.004 0.92388 0.382683 0 0 10 10 0 0 0 0 0 0 
2 2 0.000307009 0 0 0.0855 0 0 -0.1 0 0 0 0 0 0 0.00451537 0.002 0.002 0.004 0.92388 -0.382683 0 0 10 10 0 0 0 0 0 0 
ITEM: TIMESTEP
4600
ITEM: NUMBER OF ATOMS
2
ITEM: BOX BOUNDS ff ff ff
-0.05 0.05
-0.05 0.05
0 0.1
ITEM: ATOMS id type mass x y z vx vy vz fx fy fz omegax omegay omegaz radius shapex shapey shapez quat1 quat2 quat3 quat4 blockiness1 blockiness2 tqx tqy tqz angmomx angmomy angmomz 
1 2 0.000307009 0 0 0.0146 0 0 0.1 0 0 0 0 0 0 0.00451537 0.002 0.002 0.004 0.92388 0.382683 0 0 10 10 0 0 0 0 0 0 
2 2 0.000307009 0 0 0.0854 0 0 -0.1 0 0 0 0 0 0 0.00451537 0.002 0.002 0.004 0.92388 -0.382683 0 0 10 10 0 0 0 0 0 0 
ITEM: TIMESTEP
4700
ITEM: NUMBER OF ATOMS
2
ITEM: BOX BOUNDS ff ff ff
-0.05 0.05
-0.05 0.05
0 0.1
ITEM: ATOMS id type mass x y z vx vy vz fx fy fz omegax omegay omegaz radius shapex shapey shapez quat1 quat2 quat3 quat4 blockiness1 blockiness2 tqx tqy tqz angmomx angmomy angmomz 
1 2 0.000307009 0 0 0.0147 0 0 0.1 0 0 0 0 0 0 0.00451537 0.002 0.002 0.004 0.92388 0.382683 0 0 10 10 0 0 0 0 0 0 
2 2 0.000307009 0 0 0.0853 0 0 -0.1 0 0 0 0 0 0 0.00451537 0.002 0.002 0.004 0.92388 -0.382683 0 0 10 10 0 0 0 0 0 0 
ITEM: TIMESTEP
4800
ITEM: NUMBER OF ATOMS
2
ITEM: BOX BOUNDS ff ff ff
-0.05 0.05
-0.05 0.05
0 0.1
ITEM: ATOMS id type mass x y z vx vy vz fx fy fz omegax omegay omegaz radius shapex shapey shapez quat1 quat2 quat3 quat4 blockiness1 blockiness2 tqx tqy tqz angmomx angmomy angmomz 
1 2 0.000307009 0 0 0.0148 0 0 0.1 0 0 0 0 0 0 0.00451537 0.002 0.002 0.004 0.92388 0.382683 0 0 10 10 0 0 0 0 0 0 
2 2 0.000307009 0 0 0.0852 0 0 -0.1 0 0 0 0 0 0 0.00451537 0.002 0.002 0.004 0.92388 -0.382683 0 0 10 10 0 0 0 0 0 0 
ITEM: TIMESTEP
4900
ITEM: NUMBER OF ATOMS
2
ITEM: BOX BOUNDS ff ff ff
-0.05 0.05
-0.05 0.05
0 0.1
ITEM: ATOMS id type mass x y z vx vy vz fx fy fz omegax omegay omegaz radius shapex shapey shapez quat1 quat2 quat3 quat4 blockiness1 blockiness2 tqx tqy tqz angmomx angmomy angmomz 
1 2 0.000307009 0 0 0.0149 0 0 0.1 0 0 0 0 0 0 0.00451537 0.002 0.002 0.004 0.92388 0.382683 0 0 10 10 0 0 0 0 0 0 
2 2 0.000307009 0 0 0.0851 0 0 -0.1 0 0 0 0 0 0 0.00451537 0.002 0.002 0.004 0.92388 -0.382683 0 0 10 10 0 0 0 0 0 0 
ITEM: TIMESTEP
5000
ITEM: NUMBER OF ATOMS
2
ITEM: BOX BOUNDS ff ff ff
-0.05 0.05
-0.05 0.05
0 0.1
ITEM: ATOMS id type mass x y z vx vy vz fx fy fz omegax omegay omegaz radius shapex shapey shapez quat1 quat2 quat3 quat4 blockiness1 blockiness2 tqx tqy tqz angmomx angmomy angmomz 
1 2 0.000307009 0 0 0.015 0 0 0.1 0 0 0 0 0 0 0.00451537 0.002 0.002 0.004 0.92388 0.382683 0 0 10 10 0 0 0 0 0 0 
2 2 0.000307009 0 0 0.085 0 0 -0.1 0 0 0 0 0 0 0.00451537 0.002 0.002 0.004 0.92388 -0.382683 0 0 10 10 0 0 0 0 0 0 
ITEM: TIMESTEP
5100
ITEM: NUMBER OF ATOMS
2
ITEM: BOX BOUNDS ff ff ff
-0.05 0.05
-0.05 0.05
0 0.1
ITEM: ATOMS id type mass x y z vx vy vz fx fy fz omegax omegay omegaz radius shapex shapey shapez quat1 quat2 quat3 quat4 blockiness1 blockiness2 tqx tqy tqz angmomx angmomy angmomz 
1 2 0.000307009 0 0 0.0151 0 0 0.1 0 0 0 0 0 0 0.00451537 0.002 0.002 0.004 0.92388 0.382683 0 0 10 10 0 0 0 0 0 0 
2 2 0.000307009 0 0 0.0849 0 0 -0.1 0 0 0 0 0 0 0.00451537 0.002 0.002 0.004 0.92388 -0.382683 0 0 10 10 0 0 0 0 0 0 
ITEM: TIMESTEP
5200
ITEM: NUMBER OF ATOMS
2
ITEM: BOX BOUNDS ff ff ff
-0.05 0.05
-0.05 0.05
0 0.1
ITEM: ATOMS id type mass x y z vx vy vz fx fy fz omegax omegay omegaz radius shapex shapey shapez quat1 quat2 quat3 quat4 blockiness1 blockiness2 tqx tqy tqz angmomx angmomy angmomz 
1 2 0.000307009 0 0 0.0152 0 0 0.1 0 0 0 0 0 0 0.00451537 0.002 0.002 0.004 0.92388 0.382683 0 0 10 10 0 0 0 0 0 0 
2 2 0.000307009 0 0 0.0848 0 0 -0.1 0 0 0 0 0 0 0.00451537 0.002 0.002 0.004 0.92388 -0.382683 0 0 10 10 0 0 0 0 0 0 
ITEM: TIMESTEP
5300
ITEM: NUMBER OF ATOMS
2
ITEM: BOX BOUNDS ff ff ff
-0.05 0.05
-0.05 0.05
0 0.1
ITEM: ATOMS id type mass x y z vx vy vz fx fy fz omegax omegay omegaz radius shapex shapey shapez quat1 quat2 quat3 quat4 blockiness1 blockiness2 tqx tqy tqz angmomx angmomy angmomz 
1 2 0.000307009 0 0 0.0153 0 0 0.1 0 0 0 0 0 0 0.00451537 0.002 0.002 0.004 0.92388 0.382683 0 0 10 10 0 0 0 0 0 0 
2 2 0.000307009 0 0 0.0847 0 0 -0.1 0 0 0 0 0 0 0.00451537 0.002 0.002 0.004 0.92388 -0.382683 0 0 10 10 0 0 0 0 0 0 
ITEM: TIMESTEP
5400
ITEM: NUMBER OF ATOMS
2
ITEM: BOX BOUNDS ff ff ff
-0.05 0.05
-0.05 0.05
0 0.1
ITEM: ATOMS id type mass x y z vx vy vz fx fy fz omegax omegay omegaz radius shapex shapey shapez quat1 quat2 quat3 quat4 blockiness1 blockiness2 tqx tqy tqz angmomx angmomy angmomz 
1 2 0.000307009 0 0 0.0154 0 0 0.1 0 0 0 0 0 0 0.00451537 0.002 0.002 0.004 0.92388 0.382683 0 0 10 10 0 0 0 0 0 0 
2 2 0.000307009 0 0 0.0846 0 0 -0.1 0 0 0 0 0 0 0.00451537 0.002 0.002 0.004 0.92388 -0.382683 0 0 10 10 0 0 0 0 0 0 
ITEM: TIMESTEP
5500
ITEM: NUMBER OF ATOMS
2
ITEM: BOX BOUNDS ff ff ff
-0.05 0.05
-0.05 0.05
0 0.1
ITEM: ATOMS id type mass x y z vx vy vz fx fy fz omegax omegay omegaz radius shapex shapey shapez quat1 quat2 quat3 quat4 blockiness1 blockiness2 tqx tqy tqz angmomx angmomy angmomz 
1 2 0.000307009 0 0 0.0155 0 0 0.1 0 0 0 0 0 0 0.00451537 0.002 0.002 0.004 0.92388 0.382683 0 0 10 10 0 0 0 0 0 0 
2 2 0.000307009 0 0 0.0845 0 0 -0.1 0 0 0 0 0 0 0.00451537 0.002 0.002 0.004 0.92388 -0.382683 0 0 10 10 0 0 0 0 0 0 
ITEM: TIMESTEP
5600
ITEM: NUMBER OF ATOMS
2
ITEM: BOX BOUNDS ff ff ff
-0.05 0.05
-0.05 0.05
0 0.1
ITEM: ATOMS id type mass x y z vx vy vz fx fy fz omegax omegay omegaz radius shapex shapey shapez quat1 quat2 quat3 quat4 blockiness1 blockiness2 tqx tqy tqz angmomx angmomy angmomz 
1 2 0.000307009 0 0 0.0156 0 0 0.1 0 0 0 0 0 0 0.00451537 0.002 0.002 0.004 0.92388 0.382683 0 0 10 10 0 0 0 0 0 0 
2 2 0.000307009 0 0 0.0844 0 0 -0.1 0 0 0 0 0 0 0.00451537 0.002 0.002 0.004 0.92388 -0.382683 0 0 10 10 0 0 0 0 0 0 
ITEM: TIMESTEP
5700
ITEM: NUMBER OF ATOMS
2
ITEM: BOX BOUNDS ff ff ff
-0.05 0.05
-0.05 0.05
0 0.1
ITEM: ATOMS id type mass x y z vx vy vz fx fy fz omegax omegay omegaz radius shapex shapey shapez quat1 quat2 quat3 quat4 blockiness1 blockiness2 tqx tqy tqz angmomx angmomy angmomz 
1 2 0.000307009 0 0 0.0157 0 0 0.1 0 0 0 0 0 0 0.00451537 0.002 0.002 0.004 0.92388 0.382683 0 0 10 10 0 0 0 0 0 0 
2 2 0.000307009 0 0 0.0843 0 0 -0.1 0 0 0 0 0 0 0.00451537 0.002 0.002 0.004 0.92388 -0.382683 0 0 10 10 0 0 0 0 0 0 
ITEM: TIMESTEP
5800
ITEM: NUMBER OF ATOMS
2
ITEM: BOX BOUNDS ff ff ff
-0.05 0.05
-0.05 0.05
0 0.1
ITEM: ATOMS id type mass x y z vx vy vz fx fy fz omegax omegay omegaz radius shapex shapey shapez quat1 quat2 quat3 quat4 blockiness1 blockiness2 tqx tqy tqz angmomx angmomy angmomz 
1 2 0.000307009 0 0 0.0158 0 0 0.1 0 0 0 0 0 0 0.00451537 0.002 0.002 0.004 0.92388 0.382683 0 0 10 10 0 0 0 0 0 0 
2 2 0.000307009 0 0 0.0842 0 0 -0.1 0 0 0 0 0 0 0.00451537 0.002 0.002 0.004 0.92388 -0.382683 0 0 10 10 0 0 0 0 0 0 
ITEM: TIMESTEP
5900
ITEM: NUMBER OF ATOMS
2
ITEM: BOX BOUNDS ff ff ff
-0.05 0.05
-0.05 0.05
0 0.1