ITEM: TIMESTEP
3888000
ITEM: NUMBER OF ATOMS
1071
ITEM: BOX BOUNDS ff ff ff
0.0000000000000000e+00 5.0000000000000000e+00
0.0000000000000000e+00 5.0000000000000000e+00
0.0000000000000000e+00 3.0156250000000000e+01
ITEM: ATOMS id type x y z radius fx fy fz
    174     1    1.093750000000    0.468750000000    0.189798712054    0.200000000000  -2.217022491299e-16   2.771811834296e-16   1.388340889016e-01
    211     1    1.718750000000    0.312500000000    0.189798712054    0.200000000000  -2.166303030953e-16   2.555012447009e-15   1.388340889112e-01
     35     1    3.437500000000    0.468750000000    0.189798712054    0.200000000000   6.418212436665e-18   1.273873827012e-17   1.388340891417e-01
     57     1    1.562500000000    0.781250000000    0.189798712054    0.200000000000   4.458622838998e-15  -5.736701129568e-16   1.388340888172e-01
    262     1    2.187500000000    0.625000000000    0.189798712054    0.200000000000  -1.249807069552e-15   1.347528874620e-15   1.388340888172e-01
      1     1    0.312500000000    0.937500000000    0.189798712054    0.200000000000  -1.657379128878e-16   1.975106152491e-15   1.388340889066e-01
    118     1    3.125000000000    0.937500000000    0.189798712054    0.200000000000   1.364872411632e-15   1.684504019125e-15   1.388340888172e-01
     28     1    3.593750000000    0.937500000000    0.189798712054    0.200000000000   1.646455672189e-16   1.531591533209e-15   1.388340890007e-01
    121     1    2.656250000000    1.250000000000    0.189798712054    0.200000000000  -2.232863878443e-16   1.823507928894e-15   1.388340889016e-01
    192     1    3.750000000000    1.406250000000    0.189798712054    0.200000000000   2.009108184343e-15  -8.156603617647e-18   1.388340889016e-01
    217     1    0.625000000000    1.562500000000    0.189798712054    0.200000000000  -3.518029817930e-17   1.014058100056e-15   1.388340888598e-01
    109     1    1.406250000000    1.718750000000    0.189798712054    0.200000000000  -3.057584365115e-14   7.505207246379e-16   1.388340889016e-01
    264     1    3.281250000000    1.718750000000    0.189798712054    0.200000000000   8.865478342623e-16   4.879400326857e-16   1.388340889018e-01
    271     1    4.218750000000    1.562500000000    0.189798712054    0.200000000000  -1.039549500152e-16   1.545714575327e-15   1.388340888172e-01
    148     1    4.687500000000    1.718750000000    0.189798712054    0.200000000000   1.780609799128e-15   1.701168457524e-16   1.388340888172e-01
     18     1    0.937500000000    2.031250000000    0.189798712054    0.200000000000   5.238608250842e-16   2.661977336778e-17   1.388340889112e-01
    140     1    1.718750000000    2.031250000000    0.189798712054    0.200000000000  -1.087513264683e-15   1.018990911199e-15   1.388340888598e-01
     77     1    2.968750000000    2.031250000000    0.189798712054    0.200000000000   1.601205263775e-16   2.640745045880e-15   1.388340889018e-01
     22     1    3.750000000000    2.343750000000    0.189798712054    0.200000000000   8.142357871869e-16   8.015035952148e-16   1.388340889016e-01
    251     1    4.375000000000    2.187500000000    0.189798712054    0.200000000000  -7.754944204613e-16   1.881318708957e-15   1.388340889018e-01
     61     1    0.937500000000    2.500000000000    0.189798712054    0.200000000000   3.441616993831e-16   1.395933086475e-15   1.388340889018e-01
    158     1    1.562500000000    2.500000000000    0.189798712054    0.200000000000  -1.388785840889e-16   5.162845632285e-16   1.388340888598e-01
     91     1    1.406250000000    2.968750000000    0.189798712054    0.200000000000   1.179275280503e-15  -1.304074717471e-15   1.388340889066e-01
    200     1    2.656250000000    2.812500000000    0.189798712054    0.200000000000   7.162051838928e-16   3.924253978266e-16   1.388340889016e-01
     85     1    3.906250000000    2.812500000000    0.189798712054    0.200000000000   9.535891002698e-16   5.697989582133e-16   1.388340888595e-01
    221     1    0.937500000000    3.281250000000    0.189798712054    0.200000000000   9.077005002296e-17  -9.774868704268e-17   1.388340888172e-01
     63     1    2.031250000000    3.125000000000    0.189798712054    0.200000000000  -4.122747166366e-16   2.992737097119e-15   1.388340889016e-01
     90     1    2.500000000000    3.281250000000    0.189798712054    0.200000000000   1.367789172787e-15  -4.618265731275e-16   1.388340888591e-01
    225     1    2.968750000000    3.125000000000    0.189798712054    0.200000000000   6.424529844882e-17   5.315845734426e-16   1.388340889016e-01
     54     1    3.437500000000    3.281250000000    0.189798712054    0.200000000000   3.498697554271e-16   4.536142468920e-16   1.388340889016e-01
    145     1    3.906250000000    3.281250000000    0.189798712054    0.200000000000  -5.216841820618e-16   6.931825794141e-16   1.388340888595e-01
    235     1    4.687500000000    3.125000000000    0.189798712054    0.200000000000  -1.073917713031e-15   3.123074609947e-17   1.388340889018e-01
    165     1    1.250000000000    3.750000000000    0.189798712054    0.200000000000   2.330870530626e-15   6.565972729394e-16   1.388340889016e-01
     80     1    2.187500000000    3.750000000000    0.189798712054    0.200000000000   1.159071112772e-15   1.837216148307e-15   1.388340889016e-01
     47     1    2.656250000000    3.906250000000    0.189798712054    0.200000000000  -5.050044356465e-16   2.937499787222e-16   1.388340888172e-01
    193     1    3.906250000000    3.750000000000    0.189798712054    0.200000000000   1.851578529825e-16  -2.762901736996e-16   1.388340888072e-01
     30     1    0.468750000000    4.062500000000    0.189798712054    0.200000000000  -1.599436247560e-16   7.838389665097e-17   1.388340888070e-01
    197     1    1.562500000000    4.062500000000    0.189798712054    0.200000000000   4.043157974282e-16   1.442613439723e-16   1.388340889016e-01
     46     1    3.125000000000    4.062500000000    0.189798712054    0.200000000000  -1.354906021575e-14   1.157747065369e-14   1.388340888598e-01
    195     1    4.062500000000    4.218750000000    0.189798712054    0.200000000000   6.045529561818e-16  -6.135649978917e-17   1.388340888172e-01
     26     1    4.531250000000    4.218750000000    0.189798712054    0.200000000000  -1.376970168196e-14   2.827675956124e-14   1.388340888172e-01
    150     1    1.093750000000    4.375000000000    0.189798712054    0.200000000000   5.953048215506e-16   1.824698849678e-15   1.388340888072e-01
     24     1    2.187500000000    4.531250000000    0.189798712054    0.200000000000   4.101086786197e-16  -1.659138129174e-17   1.388340889532e-01
    100     1    2.656250000000    4.375000000000    0.189798712054    0.200000000000  -1.440954247205e-14   4.326197344816e-14   1.388340888172e-01
    110     1    3.593750000000    4.531250000000    0.189798712054    0.200000000000  -2.835949539282e-14  -2.697613236191e-14   1.388340888172e-01
    104     1    1.562500000000    4.804351239579    0.184613585555    0.200000000000  -1.219777208706e-17  -5.917971205848e-02   3.935174580674e-01
     48     1    4.531250000000    4.687500000000    0.189798712054    0.200000000000  -1.423307556168e-14  -2.717401831450e-14   1.388340888172e-01
  45755     3    0.078125000000    0.078125000000    0.442125000000    0.078125000000   0.000000000000e+00   0.000000000000e+00   0.000000000000e+00
  45788     3    0.234375000000    0.234375000000    0.442125000000    0.078125000000   0.000000000000e+00   0.000000000000e+00   0.000000000000e+00
  45787     3    0.078125000000    0.234375000000    0.442125000000    0.078125000000   0.000000000000e+00   0.000000000000e+00   0.000000000000e+00
  45756     3    0.234375000000    0.078125000000    0.442125000000    0.078125000000   0.000000000000e+00   0.000000000000e+00   0.000000000000e+00
  45790     3    0.546875000000    0.234375000000    0.442125000000    0.078125000000   0.000000000000e+00   0.000000000000e+00   0.000000000000e+00
  45789     3    0.390625000000    0.234375000000    0.442125000000    0.078125000000   0.000000000000e+00   0.000000000000e+00   0.000000000000e+00
  45758     3    0.546875000000    0.078125000000    0.442125000000    0.078125000000   0.000000000000e+00   0.000000000000e+00   0.000000000000e+00
  45757     3    0.390625000000    0.078125000000    0.442125000000    0.078125000000   0.000000000000e+00   0.000000000000e+00   0.000000000000e+00
  45792     3    0.859375000000    0.234375000000    0.442125000000    0.078125000000   0.000000000000e+00   0.000000000000e+00   0.000000000000e+00
  45791     3    0.703125000000    0.234375000000    0.442125000000    0.078125000000   0.000000000000e+00   0.000000000000e+00   0.000000000000e+00
  45760     3    0.859375000000    0.078125000000    0.442125000000    0.078125000000   0.000000000000e+00   0.000000000000e+00   0.000000000000e+00
  45759     3    0.703125000000    0.078125000000    0.442125000000    0.078125000000   0.000000000000e+00   0.000000000000e+00   0.000000000000e+00
  45761     3    1.015625000000    0.078125000000    0.442125000000    0.078125000000   0.000000000000e+00   0.000000000000e+00   0.000000000000e+00
  45762     3    1.171875000000    0.078125000000    0.442125000000    0.078125000000   0.000000000000e+00   0.000000000000e+00   0.000000000000e+00
  45794     3    1.171875000000    0.234375000000    0.442125000000    0.078125000000   0.000000000000e+00   0.000000000000e+00   0.000000000000e+00
  45793     3    1.015625000000    0.234375000000    0.442125000000    0.078125000000   0.000000000000e+00   0.000000000000e+00   0.000000000000e+00
  45763     3    1.328125000000    0.078125000000    0.442125000000    0.078125000000   0.000000000000e+00   0.000000000000e+00   0.000000000000e+00
  45796     3    1.484375000000    0.234375000000    0.442125000000    0.078125000000   0.000000000000e+00   0.000000000000e+00   0.000000000000e+00
  45795     3    1.328125000000    0.234375000000    0.442125000000    0.078125000000   0.000000000000e+00   0.000000000000e+00   0.000000000000e+00
  45764     3    1.484375000000    0.078125000000    0.442125000000    0.078125000000   0.000000000000e+00   0.000000000000e+00   0.000000000000e+00
  45797     3    1.640625000000    0.234375000000    0.442125000000    0.078125000000  -9.272312600297e+01  -9.272312600297e+01   2.994749720462e+02
  45798     3    1.796875000000    0.234375000000    0.442125000000    0.078125000000   9.272312600297e+01  -9.272312600297e+01   2.994749720462e+02
  45766     3    1.796875000000    0.078125000000    0.442125000000    0.078125000000   0.000000000000e+00   0.000000000000e+00   0.000000000000e+00
  45765     3    1.640625000000    0.078125000000    0.442125000000    0.078125000000   0.000000000000e+00   0.000000000000e+00   0.000000000000e+00
  45799     3    1.953125000000    0.234375000000    0.442125000000    0.078125000000   0.000000000000e+00   0.000000000000e+00   0.000000000000e+00
  45800     3    2.109375000000    0.234375000000    0.442125000000    0.078125000000   0.000000000000e+00   0.000000000000e+00   0.000000000000e+00
  45767     3    1.953125000000    0.078125000000    0.442125000000    0.078125000000   0.000000000000e+00   0.000000000000e+00   0.000000000000e+00
  45768     3    2.109375000000    0.078125000000    0.442125000000    0.078125000000   0.000000000000e+00   0.000000000000e+00   0.000000000000e+00
  45802     3    2.421875000000    0.234375000000    0.442125000000    0.078125000000   0.000000000000e+00   0.000000000000e+00   0.000000000000e+00
  45769     3    2.265625000000    0.078125000000    0.442125000000    0.078125000000   0.000000000000e+00   0.000000000000e+00   0.000000000000e+00
  45770     3    2.421875000000    0.078125000000    0.442125000000    0.078125000000   0.000000000000e+00   0.000000000000e+00   0.000000000000e+00
  45801     3    2.265625000000    0.234375000000    0.442125000000    0.078125000000   0.000000000000e+00   0.000000000000e+00   0.000000000000e+00
  45804     3    2.734375000000    0.234375000000    0.442125000000    0.078125000000   0.000000000000e+00   0.000000000000e+00   0.000000000000e+00
  45803     3    2.578125000000    0.234375000000    0.442125000000    0.078125000000   0.000000000000e+00   0.000000000000e+00   0.000000000000e+00
  45771     3    2.578125000000    0.078125000000    0.442125000000    0.078125000000   0.000000000000e+00   0.000000000000e+00   0.000000000000e+00
  45772     3    2.734375000000    0.078125000000    0.442125000000    0.078125000000   0.000000000000e+00   0.000000000000e+00   0.000000000000e+00
  45774     3    3.046875000000    0.078125000000    0.442125000000    0.078125000000   0.000000000000e+00   0.000000000000e+00   0.000000000000e+00
  45805     3    2.890625000000    0.234375000000    0.442125000000    0.078125000000   0.000000000000e+00   0.000000000000e+00   0.000000000000e+00
  45806     3    3.046875000000    0.234375000000    0.442125000000    0.078125000000   0.000000000000e+00   0.000000000000e+00   0.000000000000e+00
  45773     3    2.890625000000    0.078125000000    0.442125000000    0.078125000000   0.000000000000e+00   0.000000000000e+00   0.000000000000e+00
  45808     3    3.359375000000    0.234375000000    0.442125000000    0.078125000000   0.000000000000e+00   0.000000000000e+00   0.000000000000e+00
  45807     3    3.203125000000    0.234375000000    0.442125000000    0.078125000000   0.000000000000e+00   0.000000000000e+00   0.000000000000e+00
  45776     3    3.359375000000    0.078125000000    0.442125000000    0.078125000000   0.000000000000e+00   0.000000000000e+00   0.000000000000e+00
  45775     3    3.203125000000    0.078125000000    0.442125000000    0.078125000000   0.000000000000e+00   0.000000000000e+00   0.000000000000e+00
  45809     3    3.515625000000    0.234375000000    0.442125000000    0.078125000000   0.000000000000e+00   0.000000000000e+00   0.000000000000e+00
  45777     3    3.515625000000    0.078125000000    0.442125000000    0.078125000000   0.000000000000e+00   0.000000000000e+00   0.000000000000e+00
  45778     3    3.671875000000    0.078125000000    0.442125000000    0.078125000000   0.000000000000e+00   0.000000000000e+00   0.000000000000e+00
  45810     3    3.671875000000    0.234375000000    0.442125000000    0.078125000000   0.000000000000e+00   0.000000000000e+00   0.000000000000e+00
  45812     3    3.984375000000    0.234375000000    0.442125000000    0.078125000000   0.000000000000e+00   0.000000000000e+00   0.000000000000e+00
  45779     3    3.828125000000    0.078125000000    0.442125000000    0.078125000000   0.000000000000e+00   0.000000000000e+00   0.000000000000e+00
  45811     3    3.828125000000    0.234375000000    0.442125000000    0.078125000000   0.000000000000e+00   0.000000000000e+00   0.000000000000e+00
  45780     3    3.984375000000    0.078125000000    0.442125000000    0.078125000000   0.000000000000e+00   0.000000000000e+00   0.000000000000e+00
  45814     3    4.296875000000    0.234375000000    0.442125000000    0.078125000000   0.000000000000e+00   0.000000000000e+00   0.000000000000e+00
  45813     3    4.140625000000    0.234375000000    0.442125000000    0.078125000000   0.000000000000e+00   0.000000000000e+00   0.000000000000e+00
  45781     3    4.140625000000    0.078125000000    0.442125000000    0.078125000000   0.000000000000e+00   0.000000000000e+00   0.000000000000e+00
  45782     3    4.296875000000    0.078125000000    0.442125000000    0.078125000000   0.000000000000e+00   0.000000000000e+00   0.000000000000e+00
  45816     3    4.609375000000    0.234375000000    0.442125000000    0.078125000000   0.000000000000e+00   0.000000000000e+00   0.000000000000e+00
  45784     3    4.609375000000    0.078125000000    0.442125000000    0.078125000000   0.000000000000e+00   0.000000000000e+00   0.000000000000e+00
  45783     3    4.453125000000    0.078125000000    0.442125000000    0.078125000000   0.000000000000e+00   0.000000000000e+00   0.000000000000e+00
  45815     3    4.453125000000    0.234375000000    0.442125000000    0.078125000000   0.000000000000e+00   0.000000000000e+00   0.000000000000e+00
  45818     3    4.921875000000    0.234375000000    0.442125000000    0.078125000000   0.000000000000e+00   0.000000000000e+00   0.000000000000e+00
  45785     3    4.765625000000    0.078125000000    0.442125000000    0.078125000000   0.000000000000e+00   0.000000000000e+00   0.000000000000e+00
  45817     3    4.765625000000    0.234375000000    0.442125000000    0.078125000000   0.000000000000e+00   0.000000000000e+00   0.000000000000e+00
  45786     3    4.921875000000    0.078125000000    0.442125000000    0.078125000000   0.000000000000e+00   0.000000000000e+00   0.000000000000e+00
  45819     3    0.078125000000    0.390625000000    0.442125000000    0.078125000000   0.000000000000e+00   0.000000000000e+00   0.000000000000e+00
  45852     3    0.234375000000    0.546875000000    0.442125000000    0.078125000000   0.000000000000e+00   0.000000000000e+00   0.000000000000e+00
  45820     3    0.234375000000    0.390625000000    0.442125000000    0.078125000000   0.000000000000e+00   0.000000000000e+00   0.000000000000e+00
  45851     3    0.078125000000    0.546875000000    0.442125000000    0.078125000000   0.000000000000e+00   0.000000000000e+00   0.000000000000e+00
  45854     3    0.546875000000    0.546875000000    0.442125000000    0.078125000000   0.000000000000e+00   0.000000000000e+00   0.000000000000e+00
  45853     3    0.390625000000    0.546875000000    0.442125000000    0.078125000000   0.000000000000e+00   0.000000000000e+00   0.000000000000e+00
  45822     3    0.546875000000    0.390625000000    0.442125000000    0.078125000000   0.000000000000e+00   0.000000000000e+00   0.000000000000e+00
  45821     3    0.390625000000    0.390625000000    0.442125000000    0.078125000000   0.000000000000e+00   0.000000000000e+00   0.000000000000e+00
  45856     3    0.859375000000    0.546875000000    0.442125000000    0.078125000000   0.000000000000e+00   0.000000000000e+00   0.000000000000e+00
  45823     3    0.703125000000    0.390625000000    0.442125000000    0.078125000000   0.000000000000e+00   0.000000000000e+00   0.000000000000e+00
  45855     3    0.703125000000    0.546875000000    0.442125000000    0.078125000000   0.000000000000e+00   0.000000000000e+00   0.000000000000e+00
  45824     3    0.859375000000    0.390625000000    0.442125000000    0.078125000000   0.000000000000e+00   0.000000000000e+00   0.000000000000e+00
  45858     3    1.171875000000    0.546875000000    0.442125000000    0.078125000000   9.272312600297e+01   9.272312600297e+01   2.994749720462e+02
  45825     3    1.015625000000    0.390625000000    0.442125000000    0.078125000000  -9.272312600297e+01  -9.272312600297e+01   2.994749720462e+02
  45826     3    1.171875000000    0.390625000000    0.442125000000    0.078125000000   9.272312600297e+01  -9.272312600297e+01   2.994749720462e+02
  45857     3    1.015625000000    0.546875000000    0.442125000000    0.078125000000  -9.272312600297e+01   9.272312600297e+01   2.994749720462e+02
  45828     3    1.484375000000    0.390625000000    0.442125000000    0.078125000000   0.000000000000e+00   0.000000000000e+00   0.000000000000e+00
  45860     3    1.484375000000    0.546875000000    0.442125000000    0.078125000000   0.000000000000e+00   0.000000000000e+00   0.000000000000e+00
  45859     3    1.328125000000    0.546875000000    0.442125000000    0.078125000000   0.000000000000e+00   0.000000000000e+00   0.000000000000e+00
  45827     3    1.328125000000    0.390625000000    0.442125000000    0.078125000000   0.000000000000e+00   0.000000000000e+00   0.000000000000e+00
  45829     3    1.640625000000    0.390625000000    0.442125000000    0.078125000000  -9.272312600297e+01   9.272312600297e+01   2.994749720462e+02
  45861     3    1.640625000000    0.546875000000    0.442125000000    0.078125000000   0.000000000000e+00   0.000000000000e+00   0.000000000000e+00
  45862     3    1.796875000000    0.546875000000    0.442125000000    0.078125000000   0.000000000000e+00   0.000000000000e+00   0.000000000000e+00
  45830     3    1.796875000000    0.390625000000    0.442125000000    0.078125000000   9.272312600297e+01   9.272312600297e+01   2.994749720462e+02
  45832     3    2.109375000000    0.390625000000    0.442125000000    0.078125000000   0.000000000000e+00   0.000000000000e+00   0.000000000000e+00
  45863     3    1.953125000000    0.546875000000    0.442125000000    0.078125000000   0.000000000000e+00   0.000000000000e+00   0.000000000000e+00
  45864     3    2.109375000000    0.546875000000    0.442125000000    0.078125000000  -9.272312600297e+01  -9.272312600297e+01   2.994749720462e+02
  45831     3    1.953125000000    0.390625000000    0.442125000000    0.078125000000   0.000000000000e+00   0.000000000000e+00   0.000000000000e+00
  45833     3    2.265625000000    0.390625000000    0.442125000000    0.078125000000   0.000000000000e+00   0.000000000000e+00   0.000000000000e+00
  45866     3    2.421875000000    0.546875000000    0.442125000000    0.078125000000   0.000000000000e+00   0.000000000000e+00   0.000000000000e+00
  45834     3    2.421875000000    0.390625000000    0.442125000000    0.078125000000   0.000000000000e+00   0.000000000000e+00   0.000000000000e+00
  45865     3    2.265625000000    0.546875000000    0.442125000000    0.078125000000   9.272312600297e+01  -9.272312600297e+01   2.994749720462e+02
  45867     3    2.578125000000    0.546875000000    0.442125000000    0.078125000000   0.000000000000e+00   0.000000000000e+00   0.000000000000e+00
  45868     3    2.734375000000    0.546875000000    0.442125000000    0.078125000000   0.000000000000e+00   0.000000000000e+00   0.000000000000e+00
  45836     3    2.734375000000    0.390625000000    0.442125000000    0.078125000000   0.000000000000e+00   0.000000000000e+00   0.000000000000e+00
  45835     3    2.578125000000    0.390625000000    0.442125000000    0.078125000000   0.000000000000e+00   0.000000000000e+00   0.000000000000e+00
  45838     3    3.046875000000    0.390625000000    0.442125000000    0.078125000000   0.000000000000e+00   0.000000000000e+00   0.000000000000e+00
  45870     3    3.046875000000    0.546875000000    0.442125000000    0.078125000000   0.000000000000e+00   0.000000000000e+00   0.000000000000e+00
  45837     3    2.890625000000    0.390625000000    0.442125000000    0.078125000000   0.000000000000e+00   0.000000000000e+00   0.000000000000e+00
  45869     3    2.890625000000    0.546875000000    0.442125000000    0.078125000000   0.000000000000e+00   0.000000000000e+00   0.000000000000e+00
  45839     3    3.203125000000    0.390625000000    0.442125000000    0.078125000000   0.000000000000e+00   0.000000000000e+00   0.000000000000e+00
  45872     3    3.359375000000    0.546875000000    0.442125000000    0.078125000000  -9.272312600295e+01   9.272312600295e+01   2.994749720462e+02
  45871     3    3.203125000000    0.546875000000    0.442125000000    0.078125000000   0.000000000000e+00   0.000000000000e+00   0.000000000000e+00
  45840     3    3.359375000000    0.390625000000    0.442125000000    0.078125000000  -9.272312600295e+01  -9.272312600295e+01   2.994749720462e+02
  45873     3    3.515625000000    0.546875000000    0.442125000000    0.078125000000   9.272312600295e+01   9.272312600295e+01   2.994749720462e+02
  45841     3    3.515625000000    0.390625000000    0.442125000000    0.078125000000   9.272312600295e+01  -9.272312600295e+01   2.994749720462e+02
  45874     3    3.671875000000    0.546875000000    0.442125000000    0.078125000000   0.000000000000e+00   0.000000000000e+00   0.000000000000e+00
  45842     3    3.671875000000    0.390625000000    0.442125000000    0.078125000000   0.000000000000e+00   0.000000000000e+00   0.000000000000e+00
  45876     3    3.984375000000    0.546875000000    0.442125000000    0.078125000000   0.000000000000e+00   0.000000000000e+00   0.000000000000e+00
  45844     3    3.984375000000    0.390625000000    0.442125000000    0.078125000000   0.000000000000e+00   0.000000000000e+00   0.000000000000e+00
  45843     3    3.828125000000    0.390625000000    0.442125000000    0.078125000000   0.000000000000e+00   0.000000000000e+00   0.000000000000e+00
  45875     3    3.828125000000    0.546875000000    0.442125000000    0.078125000000   0.000000000000e+00   0.000000000000e+00   0.000000000000e+00
  45878     3    4.296875000000    0.546875000000    0.442125000000    0.078125000000   0.000000000000e+00   0.000000000000e+00   0.000000000000e+00
  45846     3    4.296875000000    0.390625000000    0.442125000000    0.078125000000   0.000000000000e+00   0.000000000000e+00   0.000000000000e+00
  45877     3    4.140625000000    0.546875000000    0.442125000000    0.078125000000   0.000000000000e+00   0.000000000000e+00   0.000000000000e+00
  45845     3    4.140625000000    0.390625000000    0.442125000000    0.078125000000   0.000000000000e+00   0.000000000000e+00   0.000000000000e+00
  45848     3    4.609375000000    0.390625000000    0.442125000000    0.078125000000   0.000000000000e+00   0.000000000000e+00   0.000000000000e+00
  45847     3    4.453125000000    0.390625000000    0.442125000000    0.078125000000   0.000000000000e+00   0.000000000000e+00   0.000000000000e+00
  45880     3    4.609375000000    0.546875000000    0.442125000000    0.078125000000   0.000000000000e+00   0.000000000000e+00   0.000000000000e+00
  45879     3    4.453125000000    0.546875000000    0.442125000000    0.078125000000   0.000000000000e+00   0.000000000000e+00   0.000000000000e+00
  45849     3    4.765625000000    0.390625000000    0.442125000000    0.078125000000   0.000000000000e+00   0.000000000000e+00   0.000000000000e+00
  45881     3    4.765625000000    0.546875000000    0.442125000000    0.078125000000   0.000000000000e+00   0.000000000000e+00   0.000000000000e+00
  45882     3    4.921875000000    0.546875000000    0.442125000000    0.078125000000   0.000000000000e+00   0.000000000000e+00   0.000000000000e+00
  45850     3    4.921875000000    0.390625000000    0.442125000000    0.078125000000   0.000000000000e+00   0.000000000000e+00   0.000000000000e+00
  45884     3    0.234375000000    0.703125000000    0.442125000000    0.078125000000   0.000000000000e+00   0.000000000000e+00   0.000000000000e+00
  45915     3    0.078125000000    0.859375000000    0.442125000000    0.078125000000   0.000000000000e+00   0.000000000000e+00   0.000000000000e+00
  45916     3    0.234375000000    0.859375000000    0.442125000000    0.078125000000  -9.272312600297e+01  -9.272312600297e+01   2.994749720462e+02
  45883     3    0.078125000000    0.703125000000    0.442125000000    0.078125000000   0.000000000000e+00   0.000000000000e+00   0.000000000000e+00
  45918     3    0.546875000000    0.859375000000    0.442125000000    0.078125000000   0.000000000000e+00   0.000000000000e+00   0.000000000000e+00
  45885     3    0.390625000000    0.703125000000    0.442125000000    0.078125000000   0.000000000000e+00   0.000000000000e+00   0.000000000000e+00
  45917     3    0.390625000000    0.859375000000    0.442125000000    0.078125000000   9.272312600297e+01  -9.272312600297e+01   2.994749720462e+02
  45886     3    0.546875000000    0.703125000000    0.442125000000    0.078125000000   0.000000000000e+00   0.000000000000e+00   0.000000000000e+00
  45919     3    0.703125000000    0.859375000000    0.442125000000    0.078125000000   0.000000000000e+00   0.000000000000e+00   0.000000000000e+00
  45920     3    0.859375000000    0.859375000000    0.442125000000    0.078125000000   0.000000000000e+00   0.000000000000e+00   0.000000000000e+00
  45887     3    0.703125000000    0.703125000000    0.442125000000    0.078125000000   0.000000000000e+00   0.000000000000e+00   0.000000000000e+00
  45888     3    0.859375000000    0.703125000000    0.442125000000    0.078125000000   0.000000000000e+00   0.000000000000e+00   0.000000000000e+00
  45922     3    1.171875000000    0.859375000000    0.442125000000    0.078125000000   0.000000000000e+00   0.000000000000e+00   0.000000000000e+00
  45889     3    1.015625000000    0.703125000000    0.442125000000    0.078125000000   0.000000000000e+00   0.000000000000e+00   0.000000000000e+00
  45890     3    1.171875000000    0.703125000000    0.442125000000    0.078125000000   0.000000000000e+00   0.000000000000e+00   0.000000000000e+00
  45921     3    1.015625000000    0.859375000000    0.442125000000    0.078125000000   0.000000000000e+00   0.000000000000e+00   0.000000000000e+00
  45891     3    1.328125000000    0.703125000000    0.442125000000    0.078125000000   0.000000000000e+00   0.000000000000e+00   0.000000000000e+00
  45923     3    1.328125000000    0.859375000000    0.442125000000    0.078125000000   0.000000000000e+00   0.000000000000e+00   0.000000000000e+00
  45924     3    1.484375000000    0.859375000000    0.442125000000    0.078125000000  -9.272312600297e+01   9.272312600297e+01   2.994749720462e+02
  45892     3    1.484375000000    0.703125000000    0.442125000000    0.078125000000  -9.272312600297e+01  -9.272312600297e+01   2.994749720462e+02
  45926     3    1.796875000000    0.859375000000    0.442125000000    0.078125000000   0.000000000000e+00   0.000000000000e+00   0.000000000000e+00
  45925     3    1.640625000000    0.859375000000    0.442125000000    0.078125000000   9.272312600297e+01   9.272312600297e+01   2.994749720462e+02
  45894     3    1.796875000000    0.703125000000    0.442125000000    0.078125000000   0.000000000000e+00   0.000000000000e+00   0.000000000000e+00
  45893     3    1.640625000000    0.703125000000    0.442125000000    0.078125000000   9.272312600297e+01  -9.272312600297e+01   2.994749720462e+02