ITEM: TIMESTEP
3910000
ITEM: NUMBER OF ATOMS
1070
ITEM: BOX BOUNDS ff ff ff
0.0000000000000000e+00 5.0000000000000000e+00
0.0000000000000000e+00 5.0000000000000000e+00
0.0000000000000000e+00 3.0156250000000000e+01
ITEM: ATOMS id type x y z radius fx fy fz
    274     1    2.500000000000    0.196478573675    0.187324686260    0.200000000000  -1.167717883384e-16   3.909344143195e-02   2.669749072900e-01
    206     1    4.687500000000    0.196478600472    0.187324688045    0.200000000000  -4.178330552589e-17   3.909349675881e-02   2.669754722967e-01
    192     1    0.937500000000    0.468750000000    0.192909466605    0.200000000000  -1.608333384549e-16   9.352317342595e-17   6.705979514402e-02
     88     1    1.406250000000    0.312500000000    0.192909466605    0.200000000000  -2.638619497547e-17   1.017667868008e-17   6.705979514390e-02
     45     1    3.281250000000    0.468750000000    0.192909466605    0.200000000000   1.142273831049e-17  -1.113005657418e-16   6.705979514402e-02
     44     1    3.750000000000    0.312500000000    0.192909466605    0.200000000000   3.331223716786e-16  -3.231890484469e-16   6.705979518335e-02
     63     1    0.312500000000    0.781250000000    0.192909466605    0.200000000000  -6.668161350585e-15  -5.350350247261e-17   6.705979518324e-02
    120     1    3.593750000000    0.781250000000    0.192909466605    0.200000000000   1.589151753135e-16  -2.128124045340e-17   6.705979517938e-02
    212     1    4.062500000000    0.781250000000    0.192909466605    0.200000000000  -2.761338724844e-17  -7.076504836549e-17   6.705979518335e-02
    138     1    2.031250000000    0.937500000000    0.192909466605    0.200000000000   8.232896459658e-17  -2.811578122462e-16   6.705979518347e-02
    184     1    3.125000000000    1.093750000000    0.192909466605    0.200000000000   1.663902623690e-16   9.880761863785e-17   6.705979518347e-02
    272     1    0.468750000000    1.406250000000    0.192909466605    0.200000000000   3.894415186757e-17   3.064930586684e-17   6.705979518335e-02
     40     1    1.718750000000    1.406250000000    0.192909466605    0.200000000000   1.723648801325e-16   1.907135736473e-17   6.705979514402e-02
    198     1    2.343750000000    1.406250000000    0.192909466605    0.200000000000  -2.958789335457e-16   3.428630166147e-16   6.705979518335e-02
    242     1    4.218750000000    1.406250000000    0.192909466605    0.200000000000   2.438095995219e-15  -5.585514340660e-16   6.705979514402e-02
    115     1    3.281250000000    1.562500000000    0.192909466605    0.200000000000   2.581455277282e-17   9.295637573594e-17   6.705979518324e-02
     18     1    0.625000000000    2.031250000000    0.192909466605    0.200000000000  -1.695304614526e-17  -1.902050190695e-17   6.705979518722e-02
    165     1    1.093750000000    2.031250000000    0.192909466605    0.200000000000   3.017886374962e-17  -5.995832778674e-17   6.705979517938e-02
    282     1    1.562500000000    1.875000000000    0.192909466605    0.200000000000   3.951776698197e-16   1.853506619854e-16   6.705979518335e-02
     12     1    2.968750000000    2.031250000000    0.192909466605    0.200000000000   9.337337035684e-16   6.427702470892e-18   6.705979514402e-02
    209     1    4.218750000000    2.031250000000    0.192909466605    0.200000000000  -3.113629447824e-15  -5.053664654683e-16   6.705979514402e-02
    181     1    4.803521418612    2.343750000000    0.187324686774    0.200000000000  -3.909345731096e-02   7.805998357453e-17   2.669750697835e-01
    238     1    1.250000000000    2.500000000000    0.192909466605    0.200000000000  -3.009499236559e-17  -1.811928087966e-16   6.705979518335e-02
     22     1    2.343750000000    2.500000000000    0.192909466605    0.200000000000  -1.121322217755e-16  -5.995659350043e-18   6.705979517915e-02
      3     1    3.125000000000    2.656250000000    0.192909466605    0.200000000000  -1.301128865915e-16   2.992278805476e-17   6.705979518335e-02
    185     1    4.375000000000    2.656250000000    0.192909466605    0.200000000000  -9.461947849642e-19   9.608058618125e-19   6.705979518324e-02
     35     1    0.781250000000    2.812500000000    0.192909466605    0.200000000000   1.082251881788e-16  -1.570512541456e-17   6.705979518335e-02
     54     1    2.656250000000    2.968750000000    0.192909466605    0.200000000000  -2.193154745659e-15  -9.238040464939e-15   6.705979518324e-02
     95     1    0.781250000000    3.281250000000    0.192909466605    0.200000000000  -4.556009119595e-18   1.850887406408e-16   6.705979518733e-02
    275     1    3.281250000000    3.281250000000    0.192909466605    0.200000000000   7.302534238657e-15  -1.109496536225e-14   6.705979518324e-02
     98     1    3.906250000000    3.281250000000    0.192909466605    0.200000000000   8.060908468588e-18  -1.928000847789e-15   6.705979522280e-02
    112     1    4.375000000000    3.281250000000    0.192909466605    0.200000000000   2.943085417289e-17  -4.493624728072e-17   6.705979514390e-02
     89     1    1.250000000000    3.437500000000    0.192909466605    0.200000000000  -6.617457475613e-17  -4.756249499143e-16   6.705979518335e-02
    148     1    1.718750000000    3.437500000000    0.192909466605    0.200000000000   1.845549948513e-16   3.407421247257e-17   6.705979518324e-02
     90     1    1.250000000000    3.906250000000    0.192909466605    0.200000000000   2.723410288430e-15   1.047559423937e-15   6.705979518335e-02
    203     1    3.593750000000    3.750000000000    0.192909466605    0.200000000000   1.847043964884e-17   2.196620096351e-15   6.705979518347e-02
     37     1    4.218750000000    3.750000000000    0.192909466605    0.200000000000   2.914969246789e-17  -1.307783631517e-16   6.705979518324e-02
     26     1    0.781250000000    4.062500000000    0.192909466605    0.200000000000  -1.422211921595e-17   1.962148212766e-16   6.705979518324e-02
    247     1    0.312500000000    4.375000000000    0.192909466605    0.200000000000   1.582781227772e-16  -9.147436395376e-15   6.705979518335e-02
     55     1    1.093750000000    4.375000000000    0.192909466605    0.200000000000   8.772470314969e-17   1.954888916175e-15   6.705979518335e-02
     32     1    1.562500000000    4.531250000000    0.192909466605    0.200000000000   8.946917139831e-18  -1.935739158757e-16   6.705979518347e-02
    261     1    2.656250000000    4.375000000000    0.192909466605    0.200000000000  -7.201939038838e-15  -2.404108547963e-17   6.705979518335e-02
     80     1    3.593750000000    4.375000000000    0.192909466605    0.200000000000  -7.256068608568e-15   4.601308075495e-15   6.705979518347e-02
     30     1    4.687500000000    4.531250000000    0.192909466605    0.200000000000   1.837249510269e-17   1.063223337210e-15   6.705979518722e-02
     38     1    2.187500000000    4.687500000000    0.192909466605    0.200000000000   1.897229540814e-17   1.145523249814e-16   6.705979518324e-02
    126     1    4.218750000000    4.687500000000    0.192909466605    0.200000000000  -1.322694556431e-15  -4.442455450742e-18   6.705979514402e-02
  45787     3    0.078125000000    0.234375000000    0.446125000000    0.078125000000   0.000000000000e+00   0.000000000000e+00   0.000000000000e+00
  45756     3    0.234375000000    0.078125000000    0.446125000000    0.078125000000   0.000000000000e+00   0.000000000000e+00   0.000000000000e+00
  45788     3    0.234375000000    0.234375000000    0.446125000000    0.078125000000   0.000000000000e+00   0.000000000000e+00   0.000000000000e+00
  45755     3    0.078125000000    0.078125000000    0.446125000000    0.078125000000   0.000000000000e+00   0.000000000000e+00   0.000000000000e+00
  45758     3    0.546875000000    0.078125000000    0.446125000000    0.078125000000   0.000000000000e+00   0.000000000000e+00   0.000000000000e+00
  45790     3    0.546875000000    0.234375000000    0.446125000000    0.078125000000   0.000000000000e+00   0.000000000000e+00   0.000000000000e+00
  45789     3    0.390625000000    0.234375000000    0.446125000000    0.078125000000   0.000000000000e+00   0.000000000000e+00   0.000000000000e+00
  45757     3    0.390625000000    0.078125000000    0.446125000000    0.078125000000   0.000000000000e+00   0.000000000000e+00   0.000000000000e+00
  45759     3    0.703125000000    0.078125000000    0.446125000000    0.078125000000   0.000000000000e+00   0.000000000000e+00   0.000000000000e+00
  45792     3    0.859375000000    0.234375000000    0.446125000000    0.078125000000   0.000000000000e+00   0.000000000000e+00   0.000000000000e+00
  45760     3    0.859375000000    0.078125000000    0.446125000000    0.078125000000   0.000000000000e+00   0.000000000000e+00   0.000000000000e+00
  45791     3    0.703125000000    0.234375000000    0.446125000000    0.078125000000   0.000000000000e+00   0.000000000000e+00   0.000000000000e+00
  45761     3    1.015625000000    0.078125000000    0.446125000000    0.078125000000   0.000000000000e+00   0.000000000000e+00   0.000000000000e+00
  45793     3    1.015625000000    0.234375000000    0.446125000000    0.078125000000   0.000000000000e+00   0.000000000000e+00   0.000000000000e+00
  45794     3    1.171875000000    0.234375000000    0.446125000000    0.078125000000   0.000000000000e+00   0.000000000000e+00   0.000000000000e+00
  45762     3    1.171875000000    0.078125000000    0.446125000000    0.078125000000   0.000000000000e+00   0.000000000000e+00   0.000000000000e+00
  45796     3    1.484375000000    0.234375000000    0.446125000000    0.078125000000   5.354321545592e+01  -5.354321545592e+01   1.735420654260e+02
  45795     3    1.328125000000    0.234375000000    0.446125000000    0.078125000000  -5.354321545592e+01  -5.354321545592e+01   1.735420654260e+02
  45763     3    1.328125000000    0.078125000000    0.446125000000    0.078125000000   0.000000000000e+00   0.000000000000e+00   0.000000000000e+00
  45764     3    1.484375000000    0.078125000000    0.446125000000    0.078125000000   0.000000000000e+00   0.000000000000e+00   0.000000000000e+00
  45766     3    1.796875000000    0.078125000000    0.446125000000    0.078125000000   0.000000000000e+00   0.000000000000e+00   0.000000000000e+00
  45797     3    1.640625000000    0.234375000000    0.446125000000    0.078125000000   0.000000000000e+00   0.000000000000e+00   0.000000000000e+00
  45798     3    1.796875000000    0.234375000000    0.446125000000    0.078125000000   0.000000000000e+00   0.000000000000e+00   0.000000000000e+00
  45765     3    1.640625000000    0.078125000000    0.446125000000    0.078125000000   0.000000000000e+00   0.000000000000e+00   0.000000000000e+00
  45768     3    2.109375000000    0.078125000000    0.446125000000    0.078125000000   0.000000000000e+00   0.000000000000e+00   0.000000000000e+00
  45767     3    1.953125000000    0.078125000000    0.446125000000    0.078125000000   0.000000000000e+00   0.000000000000e+00   0.000000000000e+00
  45800     3    2.109375000000    0.234375000000    0.446125000000    0.078125000000   0.000000000000e+00   0.000000000000e+00   0.000000000000e+00
  45799     3    1.953125000000    0.234375000000    0.446125000000    0.078125000000   0.000000000000e+00   0.000000000000e+00   0.000000000000e+00
  45770     3    2.421875000000    0.078125000000    0.446125000000    0.078125000000   0.000000000000e+00   0.000000000000e+00   0.000000000000e+00
  45802     3    2.421875000000    0.234375000000    0.446125000000    0.078125000000  -2.504094321672e+02   1.214671692435e+02   8.295173069893e+02
  45801     3    2.265625000000    0.234375000000    0.446125000000    0.078125000000   0.000000000000e+00   0.000000000000e+00   0.000000000000e+00
  45769     3    2.265625000000    0.078125000000    0.446125000000    0.078125000000   0.000000000000e+00   0.000000000000e+00   0.000000000000e+00
  45803     3    2.578125000000    0.234375000000    0.446125000000    0.078125000000   2.504094321672e+02   1.214671692435e+02   8.295173069893e+02
  45772     3    2.734375000000    0.078125000000    0.446125000000    0.078125000000   0.000000000000e+00   0.000000000000e+00   0.000000000000e+00
  45771     3    2.578125000000    0.078125000000    0.446125000000    0.078125000000   0.000000000000e+00   0.000000000000e+00   0.000000000000e+00
  45804     3    2.734375000000    0.234375000000    0.446125000000    0.078125000000   0.000000000000e+00   0.000000000000e+00   0.000000000000e+00
  45773     3    2.890625000000    0.078125000000    0.446125000000    0.078125000000   0.000000000000e+00   0.000000000000e+00   0.000000000000e+00
  45806     3    3.046875000000    0.234375000000    0.446125000000    0.078125000000   0.000000000000e+00   0.000000000000e+00   0.000000000000e+00
  45805     3    2.890625000000    0.234375000000    0.446125000000    0.078125000000   0.000000000000e+00   0.000000000000e+00   0.000000000000e+00
  45774     3    3.046875000000    0.078125000000    0.446125000000    0.078125000000   0.000000000000e+00   0.000000000000e+00   0.000000000000e+00
  45807     3    3.203125000000    0.234375000000    0.446125000000    0.078125000000   0.000000000000e+00   0.000000000000e+00   0.000000000000e+00
  45776     3    3.359375000000    0.078125000000    0.446125000000    0.078125000000   0.000000000000e+00   0.000000000000e+00   0.000000000000e+00
  45808     3    3.359375000000    0.234375000000    0.446125000000    0.078125000000   0.000000000000e+00   0.000000000000e+00   0.000000000000e+00
  45775     3    3.203125000000    0.078125000000    0.446125000000    0.078125000000   0.000000000000e+00   0.000000000000e+00   0.000000000000e+00
  45810     3    3.671875000000    0.234375000000    0.446125000000    0.078125000000  -5.354321545592e+01  -5.354321545592e+01   1.735420654260e+02
  45809     3    3.515625000000    0.234375000000    0.446125000000    0.078125000000   0.000000000000e+00   0.000000000000e+00   0.000000000000e+00
  45777     3    3.515625000000    0.078125000000    0.446125000000    0.078125000000   0.000000000000e+00   0.000000000000e+00   0.000000000000e+00
  45778     3    3.671875000000    0.078125000000    0.446125000000    0.078125000000   0.000000000000e+00   0.000000000000e+00   0.000000000000e+00
  45780     3    3.984375000000    0.078125000000    0.446125000000    0.078125000000   0.000000000000e+00   0.000000000000e+00   0.000000000000e+00
  45779     3    3.828125000000    0.078125000000    0.446125000000    0.078125000000   0.000000000000e+00   0.000000000000e+00   0.000000000000e+00
  45811     3    3.828125000000    0.234375000000    0.446125000000    0.078125000000   5.354321545592e+01  -5.354321545592e+01   1.735420654260e+02
  45812     3    3.984375000000    0.234375000000    0.446125000000    0.078125000000   0.000000000000e+00   0.000000000000e+00   0.000000000000e+00
  45781     3    4.140625000000    0.078125000000    0.446125000000    0.078125000000   0.000000000000e+00   0.000000000000e+00   0.000000000000e+00
  45813     3    4.140625000000    0.234375000000    0.446125000000    0.078125000000   0.000000000000e+00   0.000000000000e+00   0.000000000000e+00
  45814     3    4.296875000000    0.234375000000    0.446125000000    0.078125000000   0.000000000000e+00   0.000000000000e+00   0.000000000000e+00
  45782     3    4.296875000000    0.078125000000    0.446125000000    0.078125000000   0.000000000000e+00   0.000000000000e+00   0.000000000000e+00
  45784     3    4.609375000000    0.078125000000    0.446125000000    0.078125000000   0.000000000000e+00   0.000000000000e+00   0.000000000000e+00
  45816     3    4.609375000000    0.234375000000    0.446125000000    0.078125000000  -2.504098321554e+02   1.214672773782e+02   8.295186262852e+02
  45783     3    4.453125000000    0.078125000000    0.446125000000    0.078125000000   0.000000000000e+00   0.000000000000e+00   0.000000000000e+00
  45815     3    4.453125000000    0.234375000000    0.446125000000    0.078125000000   0.000000000000e+00   0.000000000000e+00   0.000000000000e+00
  45785     3    4.765625000000    0.078125000000    0.446125000000    0.078125000000   0.000000000000e+00   0.000000000000e+00   0.000000000000e+00
  45786     3    4.921875000000    0.078125000000    0.446125000000    0.078125000000   0.000000000000e+00   0.000000000000e+00   0.000000000000e+00
  45818     3    4.921875000000    0.234375000000    0.446125000000    0.078125000000   0.000000000000e+00   0.000000000000e+00   0.000000000000e+00
  45817     3    4.765625000000    0.234375000000    0.446125000000    0.078125000000   2.504098321554e+02   1.214672773782e+02   8.295186262852e+02
  45852     3    0.234375000000    0.546875000000    0.446125000000    0.078125000000   0.000000000000e+00   0.000000000000e+00   0.000000000000e+00
  45820     3    0.234375000000    0.390625000000    0.446125000000    0.078125000000   0.000000000000e+00   0.000000000000e+00   0.000000000000e+00
  45851     3    0.078125000000    0.546875000000    0.446125000000    0.078125000000   0.000000000000e+00   0.000000000000e+00   0.000000000000e+00
  45819     3    0.078125000000    0.390625000000    0.446125000000    0.078125000000   0.000000000000e+00   0.000000000000e+00   0.000000000000e+00
  45822     3    0.546875000000    0.390625000000    0.446125000000    0.078125000000   0.000000000000e+00   0.000000000000e+00   0.000000000000e+00
  45853     3    0.390625000000    0.546875000000    0.446125000000    0.078125000000   0.000000000000e+00   0.000000000000e+00   0.000000000000e+00
  45854     3    0.546875000000    0.546875000000    0.446125000000    0.078125000000   0.000000000000e+00   0.000000000000e+00   0.000000000000e+00
  45821     3    0.390625000000    0.390625000000    0.446125000000    0.078125000000   0.000000000000e+00   0.000000000000e+00   0.000000000000e+00
  45856     3    0.859375000000    0.546875000000    0.446125000000    0.078125000000  -5.354321545592e+01   5.354321545592e+01   1.735420654260e+02
  45824     3    0.859375000000    0.390625000000    0.446125000000    0.078125000000  -5.354321545592e+01  -5.354321545592e+01   1.735420654260e+02
  45855     3    0.703125000000    0.546875000000    0.446125000000    0.078125000000   0.000000000000e+00   0.000000000000e+00   0.000000000000e+00
  45823     3    0.703125000000    0.390625000000    0.446125000000    0.078125000000   0.000000000000e+00   0.000000000000e+00   0.000000000000e+00
  45858     3    1.171875000000    0.546875000000    0.446125000000    0.078125000000   0.000000000000e+00   0.000000000000e+00   0.000000000000e+00
  45826     3    1.171875000000    0.390625000000    0.446125000000    0.078125000000   0.000000000000e+00   0.000000000000e+00   0.000000000000e+00
  45825     3    1.015625000000    0.390625000000    0.446125000000    0.078125000000   5.354321545592e+01  -5.354321545592e+01   1.735420654260e+02
  45857     3    1.015625000000    0.546875000000    0.446125000000    0.078125000000   5.354321545592e+01   5.354321545592e+01   1.735420654260e+02
  45828     3    1.484375000000    0.390625000000    0.446125000000    0.078125000000   5.354321545592e+01   5.354321545592e+01   1.735420654260e+02
  45827     3    1.328125000000    0.390625000000    0.446125000000    0.078125000000  -5.354321545592e+01   5.354321545592e+01   1.735420654260e+02
  45859     3    1.328125000000    0.546875000000    0.446125000000    0.078125000000   0.000000000000e+00   0.000000000000e+00   0.000000000000e+00
  45860     3    1.484375000000    0.546875000000    0.446125000000    0.078125000000   0.000000000000e+00   0.000000000000e+00   0.000000000000e+00
  45829     3    1.640625000000    0.390625000000    0.446125000000    0.078125000000   0.000000000000e+00   0.000000000000e+00   0.000000000000e+00
  45862     3    1.796875000000    0.546875000000    0.446125000000    0.078125000000   0.000000000000e+00   0.000000000000e+00   0.000000000000e+00
  45861     3    1.640625000000    0.546875000000    0.446125000000    0.078125000000   0.000000000000e+00   0.000000000000e+00   0.000000000000e+00
  45830     3    1.796875000000    0.390625000000    0.446125000000    0.078125000000   0.000000000000e+00   0.000000000000e+00   0.000000000000e+00
  45832     3    2.109375000000    0.390625000000    0.446125000000    0.078125000000   0.000000000000e+00   0.000000000000e+00   0.000000000000e+00
  45864     3    2.109375000000    0.546875000000    0.446125000000    0.078125000000   0.000000000000e+00   0.000000000000e+00   0.000000000000e+00
  45831     3    1.953125000000    0.390625000000    0.446125000000    0.078125000000   0.000000000000e+00   0.000000000000e+00   0.000000000000e+00
  45863     3    1.953125000000    0.546875000000    0.446125000000    0.078125000000   0.000000000000e+00   0.000000000000e+00   0.000000000000e+00
  45834     3    2.421875000000    0.390625000000    0.446125000000    0.078125000000   0.000000000000e+00   0.000000000000e+00   0.000000000000e+00
  45866     3    2.421875000000    0.546875000000    0.446125000000    0.078125000000   0.000000000000e+00   0.000000000000e+00   0.000000000000e+00
  45833     3    2.265625000000    0.390625000000    0.446125000000    0.078125000000   0.000000000000e+00   0.000000000000e+00   0.000000000000e+00
  45865     3    2.265625000000    0.546875000000    0.446125000000    0.078125000000   0.000000000000e+00   0.000000000000e+00   0.000000000000e+00
  45835     3    2.578125000000    0.390625000000    0.446125000000    0.078125000000   0.000000000000e+00   0.000000000000e+00   0.000000000000e+00
  45836     3    2.734375000000    0.390625000000    0.446125000000    0.078125000000   0.000000000000e+00   0.000000000000e+00   0.000000000000e+00
  45868     3    2.734375000000    0.546875000000    0.446125000000    0.078125000000   0.000000000000e+00   0.000000000000e+00   0.000000000000e+00
  45867     3    2.578125000000    0.546875000000    0.446125000000    0.078125000000   0.000000000000e+00   0.000000000000e+00   0.000000000000e+00
  45869     3    2.890625000000    0.546875000000    0.446125000000    0.078125000000   0.000000000000e+00   0.000000000000e+00   0.000000000000e+00
  45838     3    3.046875000000    0.390625000000    0.446125000000    0.078125000000   0.000000000000e+00   0.000000000000e+00   0.000000000000e+00
  45870     3    3.046875000000    0.546875000000    0.446125000000    0.078125000000   0.000000000000e+00   0.000000000000e+00   0.000000000000e+00
  45837     3    2.890625000000    0.390625000000    0.446125000000    0.078125000000   0.000000000000e+00   0.000000000000e+00   0.000000000000e+00
  45840     3    3.359375000000    0.390625000000    0.446125000000    0.078125000000   5.354321545592e+01  -5.354321545592e+01   1.735420654260e+02
  45871     3    3.203125000000    0.546875000000    0.446125000000    0.078125000000  -5.354321545592e+01   5.354321545592e+01   1.735420654260e+02
  45839     3    3.203125000000    0.390625000000    0.446125000000    0.078125000000  -5.354321545592e+01  -5.354321545592e+01   1.735420654260e+02
  45872     3    3.359375000000    0.546875000000    0.446125000000    0.078125000000   5.354321545592e+01   5.354321545592e+01   1.735420654260e+02
  45873     3    3.515625000000    0.546875000000    0.446125000000    0.078125000000   0.000000000000e+00   0.000000000000e+00   0.000000000000e+00
  45841     3    3.515625000000    0.390625000000    0.446125000000    0.078125000000   0.000000000000e+00   0.000000000000e+00   0.000000000000e+00
  45842     3    3.671875000000    0.390625000000    0.446125000000    0.078125000000  -5.354321545592e+01   5.354321545592e+01   1.735420654260e+02
  45874     3    3.671875000000    0.546875000000    0.446125000000    0.078125000000   0.000000000000e+00   0.000000000000e+00   0.000000000000e+00
  45844     3    3.984375000000    0.390625000000    0.446125000000    0.078125000000   0.000000000000e+00   0.000000000000e+00   0.000000000000e+00
  45875     3    3.828125000000    0.546875000000    0.446125000000    0.078125000000   0.000000000000e+00   0.000000000000e+00   0.000000000000e+00
  45876     3    3.984375000000    0.546875000000    0.446125000000    0.078125000000   0.000000000000e+00   0.000000000000e+00   0.000000000000e+00
  45843     3    3.828125000000    0.390625000000    0.446125000000    0.078125000000   5.354321545592e+01   5.354321545592e+01   1.735420654260e+02
  45846     3    4.296875000000    0.390625000000    0.446125000000    0.078125000000   0.000000000000e+00   0.000000000000e+00   0.000000000000e+00
  45845     3    4.140625000000    0.390625000000    0.446125000000    0.078125000000   0.000000000000e+00   0.000000000000e+00   0.000000000000e+00
  45877     3    4.140625000000    0.546875000000    0.446125000000    0.078125000000   0.000000000000e+00   0.000000000000e+00   0.000000000000e+00
  45878     3    4.296875000000    0.546875000000    0.446125000000    0.078125000000   0.000000000000e+00   0.000000000000e+00   0.000000000000e+00
  45847     3    4.453125000000    0.390625000000    0.446125000000    0.078125000000   0.000000000000e+00   0.000000000000e+00   0.000000000000e+00
  45880     3    4.609375000000    0.546875000000    0.446125000000    0.078125000000   0.000000000000e+00   0.000000000000e+00   0.000000000000e+00
  45879     3    4.453125000000    0.546875000000    0.446125000000    0.078125000000   0.000000000000e+00   0.000000000000e+00   0.000000000000e+00
  45848     3    4.609375000000    0.390625000000    0.446125000000    0.078125000000   0.000000000000e+00   0.000000000000e+00   0.000000000000e+00
  45882     3    4.921875000000    0.546875000000    0.446125000000    0.078125000000   0.000000000000e+00   0.000000000000e+00   0.000000000000e+00
  45881     3    4.765625000000    0.546875000000    0.446125000000    0.078125000000   0.000000000000e+00   0.000000000000e+00   0.000000000000e+00
  45850     3    4.921875000000    0.390625000000    0.446125000000    0.078125000000   0.000000000000e+00   0.000000000000e+00   0.000000000000e+00
  45849     3    4.765625000000    0.390625000000    0.446125000000    0.078125000000   0.000000000000e+00   0.000000000000e+00   0.000000000000e+00
  45916     3    0.234375000000    0.859375000000    0.446125000000    0.078125000000  -5.354321545592e+01   5.354321545592e+01   1.735420654260e+02
  45915     3    0.078125000000    0.859375000000    0.446125000000    0.078125000000   0.000000000000e+00   0.000000000000e+00   0.000000000000e+00
  45884     3    0.234375000000    0.703125000000    0.446125000000    0.078125000000  -5.354321545592e+01  -5.354321545592e+01   1.735420654260e+02
  45883     3    0.078125000000    0.703125000000    0.446125000000    0.078125000000   0.000000000000e+00   0.000000000000e+00   0.000000000000e+00
  45885     3    0.390625000000    0.703125000000    0.446125000000    0.078125000000   5.354321545592e+01  -5.354321545592e+01   1.735420654260e+02
  45918     3    0.546875000000    0.859375000000    0.446125000000    0.078125000000   0.000000000000e+00   0.000000000000e+00   0.000000000000e+00
  45917     3    0.390625000000    0.859375000000    0.446125000000    0.078125000000   5.354321545592e+01   5.354321545592e+01   1.735420654260e+02
  45886     3    0.546875000000    0.703125000000    0.446125000000    0.078125000000   0.000000000000e+00   0.000000000000e+00   0.000000000000e+00
  45888     3    0.859375000000    0.703125000000    0.446125000000    0.078125000000   0.000000000000e+00   0.000000000000e+00   0.000000000000e+00
  45887     3    0.703125000000    0.703125000000    0.446125000000    0.078125000000   0.000000000000e+00   0.000000000000e+00   0.000000000000e+00
  45919     3    0.703125000000    0.859375000000    0.446125000000    0.078125000000   0.000000000000e+00   0.000000000000e+00   0.000000000000e+00
  45920     3    0.859375000000    0.859375000000    0.446125000000    0.078125000000   0.000000000000e+00   0.000000000000e+00   0.000000000000e+00
  45922     3    1.171875000000    0.859375000000    0.446125000000    0.078125000000   0.000000000000e+00   0.000000000000e+00   0.000000000000e+00
  45921     3    1.015625000000    0.859375000000    0.446125000000    0.078125000000   0.000000000000e+00   0.000000000000e+00   0.000000000000e+00
  45890     3    1.171875000000    0.703125000000    0.446125000000    0.078125000000   0.000000000000e+00   0.000000000000e+00   0.000000000000e+00
  45889     3    1.015625000000    0.703125000000    0.446125000000    0.078125000000   0.000000000000e+00   0.000000000000e+00   0.000000000000e+00
  45892     3    1.484375000000    0.703125000000    0.446125000000    0.078125000000   0.000000000000e+00   0.000000000000e+00   0.000000000000e+00
  45891     3    1.328125000000    0.703125000000    0.446125000000    0.078125000000   0.000000000000e+00   0.000000000000e+00   0.000000000000e+00
  45924     3    1.484375000000    0.859375000000    0.446125000000    0.078125000000   0.000000000000e+00   0.000000000000e+00   0.000000000000e+00
  45923     3    1.328125000000    0.859375000000    0.446125000000    0.078125000000   0.000000000000e+00   0.000000000000e+00   0.000000000000e+00
  45926     3    1.796875000000    0.859375000000    0.446125000000    0.078125000000   0.000000000000e+00   0.000000000000e+00   0.000000000000e+00
  45925     3    1.640625000000    0.859375000000    0.446125000000    0.078125000000   0.000000000000e+00   0.000000000000e+00   0.000000000000e+00
  45893     3    1.640625000000    0.703125000000    0.446125000000    0.078125000000   0.000000000000e+00   0.000000000000e+00   0.000000000000e+00
  45894     3    1.796875000000    0.703125000000    0.446125000000    0.078125000000   0.000000000000e+00   0.000000000000e+00   0.000000000000e+00
  45927     3    1.953125000000    0.859375000000    0.446125000000    0.078125000000  -5.354321545592e+01  -5.354321545592e+01   1.735420654260e+02