ITEM: TIMESTEP
3960000
ITEM: NUMBER OF ATOMS
1108
ITEM: BOX BOUNDS ff ff ff
0.0000000000000000e+00 5.0000000000000000e+00
0.0000000000000000e+00 5.0000000000000000e+00
0.0000000000000000e+00 3.0156250000000000e+01
ITEM: ATOMS id type x y z radius fx fy fz
    143     1    4.375000000000    0.196478559274    0.187324685300    0.200000000000  -1.843621925367e-16   3.909341166019e-02   2.669746035938e-01
    302     1    0.312500000000    0.468750000000    0.192909466605    0.200000000000  -3.258298048300e-16  -4.836227675500e-16   6.705979517938e-02
    169     1    1.718750000000    0.312500000000    0.192909466605    0.200000000000  -4.437799621495e-17  -1.344054014310e-16   6.705979517915e-02
    183     1    2.500000000000    0.468750000000    0.192909466605    0.200000000000   1.515818304182e-15   6.397602886190e-17   6.705979517938e-02
    436     1    2.968750000000    0.312500000000    0.192909466605    0.200000000000  -1.095008379944e-16   9.848069192933e-15   6.705979518722e-02
    229     1    3.437500000000    0.312500000000    0.192909466605    0.200000000000   4.676545998177e-16   7.263262261636e-16   6.705979518347e-02
    502     1    3.906250000000    0.312500000000    0.192909466605    0.200000000000   1.157269077918e-16  -4.532883935028e-17   6.705979518324e-02
     34     1    4.687500000000    0.468750000000    0.192909466605    0.200000000000  -1.844069542757e-15  -6.838117923061e-15   6.705979522258e-02
     93     1    1.093750000000    0.625000000000    0.192909466605    0.200000000000  -3.306263392929e-16  -4.598517158991e-17   6.705979518335e-02
    373     1    2.031250000000    0.625000000000    0.192909466605    0.200000000000   1.684065402041e-17   9.937772913906e-17   6.705979518347e-02
    432     1    2.968750000000    0.781250000000    0.192909466605    0.200000000000   3.014047992994e-17   3.637472987805e-17   6.705979518733e-02
    236     1    3.593750000000    0.781250000000    0.192909466605    0.200000000000  -3.786130103728e-17   3.284432302379e-17   6.705979518347e-02
     37     1    4.062500000000    0.781250000000    0.192909466605    0.200000000000  -1.167915597724e-17  -5.305259863510e-16   6.705979518335e-02
    317     1    0.312500000000    0.937500000000    0.192909466605    0.200000000000  -3.350292499720e-17   1.417980033188e-17   6.705979518347e-02
    147     1    1.250000000000    1.093750000000    0.192909466605    0.200000000000   1.286389546084e-17  -4.218607873705e-18   6.705979518324e-02
    369     1    1.718750000000    0.937500000000    0.192909466605    0.200000000000   1.197248509377e-16   4.250577287288e-15   6.705979518324e-02
     33     1    2.343750000000    0.937500000000    0.192909466605    0.200000000000  -2.991246019090e-17   1.202107226369e-16   6.705979518335e-02
    425     1    3.281250000000    1.093750000000    0.192909466605    0.200000000000  -2.585237970839e-16  -8.714364392419e-17   6.705979514402e-02
    321     1    4.531250000000    0.937500000000    0.192909466605    0.200000000000  -3.299384128514e-15  -5.173723834944e-16   6.705979522258e-02
    338     1    0.781250000000    1.250000000000    0.192909466605    0.200000000000  -6.649101559722e-18   9.087406754076e-15   6.705979518335e-02
    307     1    1.562500000000    1.406250000000    0.192909466605    0.200000000000   7.095503485755e-17  -6.663827847947e-17   6.705979518335e-02
    148     1    2.812500000000    1.250000000000    0.192909466605    0.200000000000  -1.470683585816e-17   2.590405148483e-16   6.705979514402e-02
    113     1    3.412327891538    1.558861889022    0.189168417489    0.200000000000  -4.141039284934e-02  -2.486528654617e-02   2.009460238762e-01
     41     1    3.906250000000    1.250000000000    0.192909466605    0.200000000000  -3.528448553133e-16   1.468179690761e-16   6.705979514402e-02
    150     1    0.196478592005    1.562500000000    0.187324687481    0.200000000000   3.909347929207e-02   1.085594128133e-17   2.669752938468e-01
      3     1    0.625000000000    1.718750000000    0.192909466605    0.200000000000  -9.513473835627e-17  -3.651546508381e-16   6.705979518347e-02
    271     1    1.093750000000    1.562500000000    0.192909466605    0.200000000000   2.458266350182e-18   3.147574486525e-17   6.705979518335e-02
    371     1    2.187500000000    1.562500000000    0.192909466605    0.200000000000  -7.359707962401e-18  -2.842656304170e-16   6.705979517938e-02
    379     1    2.503638519464    1.849850621993    0.189171701359    0.200000000000   2.486096952177e-02  -4.140474598441e-02   2.008298470607e-01
     19     1    2.968750000000    1.718750000000    0.192909466605    0.200000000000   2.467707249963e-17  -1.668820467005e-17   6.705979518324e-02
    124     1    3.775112634772    1.722389176476    0.189177012673    0.200000000000   4.139556554539e-02   2.485395885833e-02   2.006420047649e-01
    358     1    0.937500000000    2.031250000000    0.192909466605    0.200000000000  -1.333586822833e-17   3.366043311841e-17   6.705979518335e-02
     73     1    1.562500000000    1.875000000000    0.192909466605    0.200000000000  -1.112740132625e-16   6.096607934616e-16   6.705979518347e-02
     57     1    4.062500000000    2.031250000000    0.192909466605    0.200000000000   1.124209376191e-17   6.085222018305e-17   6.705979518335e-02
    154     1    4.803521408000    1.875000000000    0.187324687481    0.200000000000  -3.909347922505e-02  -6.433102702050e-18   2.669752935938e-01
     82     1    0.312500000000    2.187500000000    0.192909466605    0.200000000000  -1.241240004740e-17  -5.445859837891e-17   6.705979518335e-02
     13     1    2.340111229460    2.212635363544    0.189173726740    0.200000000000  -2.485830025471e-02   4.140125202534e-02   2.007582073309e-01
    174     1    2.968750000000    2.187500000000    0.192909466605    0.200000000000  -4.869734305777e-16  -2.350631294200e-17   6.705979518335e-02
    527     1    3.593750000000    2.187500000000    0.192909466605    0.200000000000   2.316458383200e-16  -3.184433159058e-16   6.705979518324e-02
    296     1    4.531250000000    2.187500000000    0.192909466605    0.200000000000   1.860084081807e-17   2.655214447912e-18   6.705979518335e-02
     72     1    1.406250000000    2.500000000000    0.192909466605    0.200000000000  -2.919701528649e-16  -3.335239443955e-16   6.705979518347e-02
    207     1    2.031250000000    2.500000000000    0.192909466605    0.200000000000  -1.796228714410e-16  -2.868416228310e-16   6.705979518335e-02
    105     1    2.500000000000    2.656250000000    0.192909466605    0.200000000000   1.606280159789e-17   5.321166680556e-17   6.705979514402e-02
    343     1    3.125000000000    2.656250000000    0.192909466605    0.200000000000  -1.055414309239e-16  -1.016782275939e-16   6.705979518335e-02
    139     1    3.568634399125    2.652610876410    0.189176583778    0.200000000000  -4.139630888984e-02  -2.485452615347e-02   2.006571708223e-01
    325     1    4.375000000000    2.656250000000    0.192909466605    0.200000000000  -1.690001047225e-16  -7.799807084461e-17   6.705979517915e-02
     62     1    4.803521377920    2.656250000000    0.187324689485    0.200000000000  -3.909354150661e-02  -4.111524071850e-18   2.669759280195e-01
    213     1    0.196478655156    2.968750000000    0.187324691689    0.200000000000   3.909360978194e-02  -8.484439770976e-18   2.669766254783e-01
     44     1    0.625000000000    2.968750000000    0.192909466605    0.200000000000  -1.222983335221e-18   1.004122568806e-16   6.705979518347e-02
     36     1    1.253638815200    2.943617132765    0.189174087565    0.200000000000   2.485782412606e-02  -4.140062856910e-02   2.007454459956e-01
    465     1    3.931419142021    2.816138164376    0.189168845970    0.200000000000   4.140965716506e-02   2.486472389435e-02   2.009308638433e-01
    129     1    1.090111525322    3.306401874400    0.189171340635    0.200000000000  -2.486144437897e-02   4.140536718891e-02   2.008426070865e-01
    537     1    1.562500000000    3.281250000000    0.192909466605    0.200000000000   1.324221373619e-17   6.600080823401e-17   6.705979518335e-02
    209     1    2.343750000000    3.125000000000    0.192909466605    0.200000000000   8.371025910590e-17   4.997091933062e-17   6.705979518324e-02
    172     1    2.968750000000    3.125000000000    0.192909466605    0.200000000000   7.782136371527e-15   7.119564479448e-16   6.705979518335e-02
    478     1    3.906250000000    3.281250000000    0.192909466605    0.200000000000  -1.028520979087e-16   1.085738353265e-16   6.705979518335e-02
    404     1    4.375000000000    3.125000000000    0.192909466605    0.200000000000  -5.523061297153e-15   2.888920624536e-16   6.705979518324e-02
     81     1    0.468750000000    3.437500000000    0.192909466605    0.200000000000   7.843583363360e-17   8.948755287965e-17   6.705979514390e-02
    471     1    3.281250000000    3.593750000000    0.192909466605    0.200000000000  -1.070292561249e-17   1.083236834596e-17   6.705979517938e-02
    270     1    4.218750000000    3.593750000000    0.192909466605    0.200000000000  -1.309167056181e-15   1.031333696266e-15   6.705979518335e-02
    132     1    4.687500000000    3.593750000000    0.192909466605    0.200000000000   2.501086064558e-15   2.038288248352e-16   6.705979518335e-02
    336     1    0.196478699919    3.906250000000    0.187324694671    0.200000000000   3.909370223850e-02  -4.955411565162e-18   2.669775693003e-01
    403     1    0.781250000000    3.906250000000    0.192909466605    0.200000000000   1.053915436276e-17  -2.850938093193e-17   6.705979518324e-02
     59     1    1.718750000000    3.906250000000    0.192909466605    0.200000000000  -1.856522296016e-16   8.800896469707e-17   6.705979518324e-02
    135     1    2.343750000000    3.750000000000    0.192909466605    0.200000000000   2.996016468279e-15   6.610798803548e-16   6.705979518335e-02
    380     1    2.812500000000    3.750000000000    0.192909466605    0.200000000000   2.800494507885e-17   1.214037602391e-17   6.705979518324e-02
    428     1    3.750000000000    3.750000000000    0.192909466605    0.200000000000   6.263953707622e-16   1.418470842674e-15   6.705979514402e-02
    496     1    0.468750000000    4.218750000000    0.192909466605    0.200000000000   2.917283281739e-17   7.410725286517e-18   6.705979517938e-02
     85     1    1.406250000000    4.218750000000    0.192909466605    0.200000000000  -1.491326564053e-16  -8.614423635241e-17   6.705979518335e-02
    225     1    2.031250000000    4.218750000000    0.192909466605    0.200000000000  -3.286496947747e-15  -1.245838796152e-15   6.705979518335e-02
    412     1    2.816138690478    4.349860164032    0.189173080323    0.200000000000   2.485915276967e-02  -4.140236813840e-02   2.007810716793e-01
    525     1    3.125000000000    4.062500000000    0.192909466605    0.200000000000  -2.007471914379e-18   7.786748957411e-17   6.705979518335e-02
    333     1    4.062500000000    4.218750000000    0.192909466605    0.200000000000  -1.267040988982e-16  -1.416651129134e-17   6.705979517938e-02
    238     1    0.937500000000    4.375000000000    0.192909466605    0.200000000000  -7.624947097446e-17  -1.337966114506e-16   6.705979518335e-02
    162     1    1.718750000000    4.531250000000    0.192909466605    0.200000000000  -1.869779346133e-17   2.262314114751e-18   6.705979518335e-02
    526     1    3.593750000000    4.375000000000    0.192909466605    0.200000000000   4.497719791356e-17   6.964439261668e-17   6.705979518335e-02
    442     1    4.687500000000    4.375000000000    0.192909466605    0.200000000000   3.531109017868e-16  -1.300845640078e-16   6.705979517915e-02
    118     1    0.468750000000    4.687500000000    0.192909466605    0.200000000000   3.727075851684e-17  -1.600903572278e-16   6.705979518324e-02
    286     1    1.093750000000    4.803521387353    0.187324688856    0.200000000000  -5.099964173732e-17  -3.909352190838e-02   2.669757291658e-01
    288     1    2.187500000000    4.687500000000    0.192909466605    0.200000000000  -1.288450768905e-16  -6.985723684186e-15   6.705979518335e-02
     91     1    2.652611400345    4.712644905498    0.189172347670    0.200000000000  -2.486011858124e-02   4.140363202099e-02   2.008069862513e-01
    421     1    3.125000000000    4.687500000000    0.192909466605    0.200000000000  -1.222725314118e-16   7.394037651607e-17   6.705979518335e-02
    292     1    4.218750000000    4.687500000000    0.192909466605    0.200000000000  -5.371702261822e-17  -1.104759029691e-16   6.705979518324e-02
    467     1    4.687500000000    4.803521341601    0.187324691905    0.200000000000   7.596110404145e-18  -3.909361639817e-02   2.669766938229e-01
  43978     3    0.234375000000    0.234375000000    0.446125000000    0.078125000000   0.000000000000e+00   0.000000000000e+00   0.000000000000e+00
  43977     3    0.078125000000    0.234375000000    0.446125000000    0.078125000000   0.000000000000e+00   0.000000000000e+00   0.000000000000e+00
  43946     3    0.234375000000    0.078125000000    0.446125000000    0.078125000000   0.000000000000e+00   0.000000000000e+00   0.000000000000e+00
  43945     3    0.078125000000    0.078125000000    0.446125000000    0.078125000000   0.000000000000e+00   0.000000000000e+00   0.000000000000e+00
  43979     3    0.390625000000    0.234375000000    0.446125000000    0.078125000000   0.000000000000e+00   0.000000000000e+00   0.000000000000e+00
  43947     3    0.390625000000    0.078125000000    0.446125000000    0.078125000000   0.000000000000e+00   0.000000000000e+00   0.000000000000e+00
  43948     3    0.546875000000    0.078125000000    0.446125000000    0.078125000000   0.000000000000e+00   0.000000000000e+00   0.000000000000e+00
  43980     3    0.546875000000    0.234375000000    0.446125000000    0.078125000000   0.000000000000e+00   0.000000000000e+00   0.000000000000e+00
  43982     3    0.859375000000    0.234375000000    0.446125000000    0.078125000000   0.000000000000e+00   0.000000000000e+00   0.000000000000e+00
  43949     3    0.703125000000    0.078125000000    0.446125000000    0.078125000000   0.000000000000e+00   0.000000000000e+00   0.000000000000e+00
  43981     3    0.703125000000    0.234375000000    0.446125000000    0.078125000000   0.000000000000e+00   0.000000000000e+00   0.000000000000e+00
  43950     3    0.859375000000    0.078125000000    0.446125000000    0.078125000000   0.000000000000e+00   0.000000000000e+00   0.000000000000e+00
  43983     3    1.015625000000    0.234375000000    0.446125000000    0.078125000000   0.000000000000e+00   0.000000000000e+00   0.000000000000e+00
  43984     3    1.171875000000    0.234375000000    0.446125000000    0.078125000000   0.000000000000e+00   0.000000000000e+00   0.000000000000e+00
  43952     3    1.171875000000    0.078125000000    0.446125000000    0.078125000000   0.000000000000e+00   0.000000000000e+00   0.000000000000e+00
  43951     3    1.015625000000    0.078125000000    0.446125000000    0.078125000000   0.000000000000e+00   0.000000000000e+00   0.000000000000e+00
  43986     3    1.484375000000    0.234375000000    0.446125000000    0.078125000000   0.000000000000e+00   0.000000000000e+00   0.000000000000e+00
  43985     3    1.328125000000    0.234375000000    0.446125000000    0.078125000000   0.000000000000e+00   0.000000000000e+00   0.000000000000e+00
  43954     3    1.484375000000    0.078125000000    0.446125000000    0.078125000000   0.000000000000e+00   0.000000000000e+00   0.000000000000e+00
  43953     3    1.328125000000    0.078125000000    0.446125000000    0.078125000000   0.000000000000e+00   0.000000000000e+00   0.000000000000e+00
  43988     3    1.796875000000    0.234375000000    0.446125000000    0.078125000000   5.354321545592e+01  -5.354321545592e+01   1.735420654260e+02
  43956     3    1.796875000000    0.078125000000    0.446125000000    0.078125000000   0.000000000000e+00   0.000000000000e+00   0.000000000000e+00
  43987     3    1.640625000000    0.234375000000    0.446125000000    0.078125000000  -5.354321545592e+01  -5.354321545592e+01   1.735420654260e+02
  43955     3    1.640625000000    0.078125000000    0.446125000000    0.078125000000   0.000000000000e+00   0.000000000000e+00   0.000000000000e+00
  43957     3    1.953125000000    0.078125000000    0.446125000000    0.078125000000   0.000000000000e+00   0.000000000000e+00   0.000000000000e+00
  43958     3    2.109375000000    0.078125000000    0.446125000000    0.078125000000   0.000000000000e+00   0.000000000000e+00   0.000000000000e+00
  43990     3    2.109375000000    0.234375000000    0.446125000000    0.078125000000   0.000000000000e+00   0.000000000000e+00   0.000000000000e+00
  43989     3    1.953125000000    0.234375000000    0.446125000000    0.078125000000   0.000000000000e+00   0.000000000000e+00   0.000000000000e+00
  43991     3    2.265625000000    0.234375000000    0.446125000000    0.078125000000   0.000000000000e+00   0.000000000000e+00   0.000000000000e+00
  43960     3    2.421875000000    0.078125000000    0.446125000000    0.078125000000   0.000000000000e+00   0.000000000000e+00   0.000000000000e+00
  43959     3    2.265625000000    0.078125000000    0.446125000000    0.078125000000   0.000000000000e+00   0.000000000000e+00   0.000000000000e+00
  43992     3    2.421875000000    0.234375000000    0.446125000000    0.078125000000   0.000000000000e+00   0.000000000000e+00   0.000000000000e+00
  43961     3    2.578125000000    0.078125000000    0.446125000000    0.078125000000   0.000000000000e+00   0.000000000000e+00   0.000000000000e+00
  43993     3    2.578125000000    0.234375000000    0.446125000000    0.078125000000   0.000000000000e+00   0.000000000000e+00   0.000000000000e+00
  43994     3    2.734375000000    0.234375000000    0.446125000000    0.078125000000   0.000000000000e+00   0.000000000000e+00   0.000000000000e+00
  43962     3    2.734375000000    0.078125000000    0.446125000000    0.078125000000   0.000000000000e+00   0.000000000000e+00   0.000000000000e+00
  43995     3    2.890625000000    0.234375000000    0.446125000000    0.078125000000  -5.354321545592e+01  -5.354321545592e+01   1.735420654260e+02
  43964     3    3.046875000000    0.078125000000    0.446125000000    0.078125000000   0.000000000000e+00   0.000000000000e+00   0.000000000000e+00
  43996     3    3.046875000000    0.234375000000    0.446125000000    0.078125000000   5.354321545592e+01  -5.354321545592e+01   1.735420654260e+02
  43963     3    2.890625000000    0.078125000000    0.446125000000    0.078125000000   0.000000000000e+00   0.000000000000e+00   0.000000000000e+00
  43965     3    3.203125000000    0.078125000000    0.446125000000    0.078125000000   0.000000000000e+00   0.000000000000e+00   0.000000000000e+00
  43997     3    3.203125000000    0.234375000000    0.446125000000    0.078125000000   0.000000000000e+00   0.000000000000e+00   0.000000000000e+00
  43966     3    3.359375000000    0.078125000000    0.446125000000    0.078125000000   0.000000000000e+00   0.000000000000e+00   0.000000000000e+00
  43998     3    3.359375000000    0.234375000000    0.446125000000    0.078125000000  -5.354321545592e+01  -5.354321545592e+01   1.735420654260e+02
  43968     3    3.671875000000    0.078125000000    0.446125000000    0.078125000000   0.000000000000e+00   0.000000000000e+00   0.000000000000e+00
  44000     3    3.671875000000    0.234375000000    0.446125000000    0.078125000000   0.000000000000e+00   0.000000000000e+00   0.000000000000e+00
  43999     3    3.515625000000    0.234375000000    0.446125000000    0.078125000000   5.354321545592e+01  -5.354321545592e+01   1.735420654260e+02
  43967     3    3.515625000000    0.078125000000    0.446125000000    0.078125000000   0.000000000000e+00   0.000000000000e+00   0.000000000000e+00
  44001     3    3.828125000000    0.234375000000    0.446125000000    0.078125000000  -5.354321545592e+01  -5.354321545592e+01   1.735420654260e+02
  43969     3    3.828125000000    0.078125000000    0.446125000000    0.078125000000   0.000000000000e+00   0.000000000000e+00   0.000000000000e+00
  44002     3    3.984375000000    0.234375000000    0.446125000000    0.078125000000   5.354321545592e+01  -5.354321545592e+01   1.735420654260e+02
  43970     3    3.984375000000    0.078125000000    0.446125000000    0.078125000000   0.000000000000e+00   0.000000000000e+00   0.000000000000e+00
  44004     3    4.296875000000    0.234375000000    0.446125000000    0.078125000000  -2.504092172040e+02   1.214671111291e+02   8.295165979681e+02
  43972     3    4.296875000000    0.078125000000    0.446125000000    0.078125000000   0.000000000000e+00   0.000000000000e+00   0.000000000000e+00
  44003     3    4.140625000000    0.234375000000    0.446125000000    0.078125000000   0.000000000000e+00   0.000000000000e+00   0.000000000000e+00
  43971     3    4.140625000000    0.078125000000    0.446125000000    0.078125000000   0.000000000000e+00   0.000000000000e+00   0.000000000000e+00
  44005     3    4.453125000000    0.234375000000    0.446125000000    0.078125000000   2.504092172040e+02   1.214671111291e+02   8.295165979681e+02
  43973     3    4.453125000000    0.078125000000    0.446125000000    0.078125000000   0.000000000000e+00   0.000000000000e+00   0.000000000000e+00
  44006     3    4.609375000000    0.234375000000    0.446125000000    0.078125000000   0.000000000000e+00   0.000000000000e+00   0.000000000000e+00
  43974     3    4.609375000000    0.078125000000    0.446125000000    0.078125000000   0.000000000000e+00   0.000000000000e+00   0.000000000000e+00
  44008     3    4.921875000000    0.234375000000    0.446125000000    0.078125000000   0.000000000000e+00   0.000000000000e+00   0.000000000000e+00
  44007     3    4.765625000000    0.234375000000    0.446125000000    0.078125000000   0.000000000000e+00   0.000000000000e+00   0.000000000000e+00
  43975     3    4.765625000000    0.078125000000    0.446125000000    0.078125000000   0.000000000000e+00   0.000000000000e+00   0.000000000000e+00
  43976     3    4.921875000000    0.078125000000    0.446125000000    0.078125000000   0.000000000000e+00   0.000000000000e+00   0.000000000000e+00
  44010     3    0.234375000000    0.390625000000    0.446125000000    0.078125000000  -5.354321545592e+01  -5.354321545592e+01   1.735420654260e+02
  44041     3    0.078125000000    0.546875000000    0.446125000000    0.078125000000   0.000000000000e+00   0.000000000000e+00   0.000000000000e+00
  44009     3    0.078125000000    0.390625000000    0.446125000000    0.078125000000   0.000000000000e+00   0.000000000000e+00   0.000000000000e+00
  44042     3    0.234375000000    0.546875000000    0.446125000000    0.078125000000  -5.354321545592e+01   5.354321545592e+01   1.735420654260e+02
  44011     3    0.390625000000    0.390625000000    0.446125000000    0.078125000000   5.354321545592e+01  -5.354321545592e+01   1.735420654260e+02
  44044     3    0.546875000000    0.546875000000    0.446125000000    0.078125000000   0.000000000000e+00   0.000000000000e+00   0.000000000000e+00
  44012     3    0.546875000000    0.390625000000    0.446125000000    0.078125000000   0.000000000000e+00   0.000000000000e+00   0.000000000000e+00
  44043     3    0.390625000000    0.546875000000    0.446125000000    0.078125000000   5.354321545592e+01   5.354321545592e+01   1.735420654260e+02
  44046     3    0.859375000000    0.546875000000    0.446125000000    0.078125000000   0.000000000000e+00   0.000000000000e+00   0.000000000000e+00
  44045     3    0.703125000000    0.546875000000    0.446125000000    0.078125000000   0.000000000000e+00   0.000000000000e+00   0.000000000000e+00
  44014     3    0.859375000000    0.390625000000    0.446125000000    0.078125000000   0.000000000000e+00   0.000000000000e+00   0.000000000000e+00
  44013     3    0.703125000000    0.390625000000    0.446125000000    0.078125000000   0.000000000000e+00   0.000000000000e+00   0.000000000000e+00
  44048     3    1.171875000000    0.546875000000    0.446125000000    0.078125000000   5.354321545592e+01  -5.354321545592e+01   1.735420654260e+02
  44047     3    1.015625000000    0.546875000000    0.446125000000    0.078125000000  -5.354321545592e+01  -5.354321545592e+01   1.735420654260e+02
  44016     3    1.171875000000    0.390625000000    0.446125000000    0.078125000000   0.000000000000e+00   0.000000000000e+00   0.000000000000e+00
  44015     3    1.015625000000    0.390625000000    0.446125000000    0.078125000000   0.000000000000e+00   0.000000000000e+00   0.000000000000e+00
  44050     3    1.484375000000    0.546875000000    0.446125000000    0.078125000000   0.000000000000e+00   0.000000000000e+00   0.000000000000e+00
  44049     3    1.328125000000    0.546875000000    0.446125000000    0.078125000000   0.000000000000e+00   0.000000000000e+00   0.000000000000e+00
  44018     3    1.484375000000    0.390625000000    0.446125000000    0.078125000000   0.000000000000e+00   0.000000000000e+00   0.000000000000e+00
  44017     3    1.328125000000    0.390625000000    0.446125000000    0.078125000000   0.000000000000e+00   0.000000000000e+00   0.000000000000e+00
  44051     3    1.640625000000    0.546875000000    0.446125000000    0.078125000000   0.000000000000e+00   0.000000000000e+00   0.000000000000e+00
  44020     3    1.796875000000    0.390625000000    0.446125000000    0.078125000000   5.354321545592e+01   5.354321545592e+01   1.735420654260e+02
  44052     3    1.796875000000    0.546875000000    0.446125000000    0.078125000000   0.000000000000e+00   0.000000000000e+00   0.000000000000e+00
  44019     3    1.640625000000    0.390625000000    0.446125000000    0.078125000000  -5.354321545592e+01   5.354321545592e+01   1.735420654260e+02
  44022     3    2.109375000000    0.390625000000    0.446125000000    0.078125000000   0.000000000000e+00   0.000000000000e+00   0.000000000000e+00
  44053     3    1.953125000000    0.546875000000    0.446125000000    0.078125000000  -5.354321545592e+01  -5.354321545592e+01   1.735420654260e+02
  44054     3    2.109375000000    0.546875000000    0.446125000000    0.078125000000   5.354321545592e+01  -5.354321545592e+01   1.735420654260e+02
  44021     3    1.953125000000    0.390625000000    0.446125000000    0.078125000000   0.000000000000e+00   0.000000000000e+00   0.000000000000e+00
  44024     3    2.421875000000    0.390625000000    0.446125000000    0.078125000000  -5.354321545592e+01  -5.354321545592e+01   1.735420654260e+02
  44056     3    2.421875000000    0.546875000000    0.446125000000    0.078125000000  -5.354321545592e+01   5.354321545592e+01   1.735420654260e+02
  44023     3    2.265625000000    0.390625000000    0.446125000000    0.078125000000   0.000000000000e+00   0.000000000000e+00   0.000000000000e+00
  44055     3    2.265625000000    0.546875000000    0.446125000000    0.078125000000   0.000000000000e+00   0.000000000000e+00   0.000000000000e+00
  44026     3    2.734375000000    0.390625000000    0.446125000000    0.078125000000   0.000000000000e+00   0.000000000000e+00   0.000000000000e+00
  44057     3    2.578125000000    0.546875000000    0.446125000000    0.078125000000   5.354321545592e+01   5.354321545592e+01   1.735420654260e+02
  44025     3    2.578125000000    0.390625000000    0.446125000000    0.078125000000   5.354321545592e+01  -5.354321545592e+01   1.735420654260e+02
  44058     3    2.734375000000    0.546875000000    0.446125000000    0.078125000000   0.000000000000e+00   0.000000000000e+00   0.000000000000e+00
  44060     3    3.046875000000    0.546875000000    0.446125000000    0.078125000000   0.000000000000e+00   0.000000000000e+00   0.000000000000e+00
  44028     3    3.046875000000    0.390625000000    0.446125000000    0.078125000000   5.354321545592e+01   5.354321545592e+01   1.735420654260e+02
  44059     3    2.890625000000    0.546875000000    0.446125000000    0.078125000000   0.000000000000e+00   0.000000000000e+00   0.000000000000e+00
  44027     3    2.890625000000    0.390625000000    0.446125000000    0.078125000000  -5.354321545592e+01   5.354321545592e+01   1.735420654260e+02
  44030     3    3.359375000000    0.390625000000    0.446125000000    0.078125000000  -5.354321545592e+01   5.354321545592e+01   1.735420654260e+02
  44061     3    3.203125000000    0.546875000000    0.446125000000    0.078125000000   0.000000000000e+00   0.000000000000e+00   0.000000000000e+00
  44062     3    3.359375000000    0.546875000000    0.446125000000    0.078125000000   0.000000000000e+00   0.000000000000e+00   0.000000000000e+00
  44029     3    3.203125000000    0.390625000000    0.446125000000    0.078125000000   0.000000000000e+00   0.000000000000e+00   0.000000000000e+00
  44032     3    3.671875000000    0.390625000000    0.446125000000    0.078125000000   0.000000000000e+00   0.000000000000e+00   0.000000000000e+00
  44063     3    3.515625000000    0.546875000000    0.446125000000    0.078125000000   0.000000000000e+00   0.000000000000e+00   0.000000000000e+00
  44031     3    3.515625000000    0.390625000000    0.446125000000    0.078125000000   5.354321545592e+01   5.354321545592e+01   1.735420654260e+02
  44064     3    3.671875000000    0.546875000000    0.446125000000    0.078125000000   0.000000000000e+00   0.000000000000e+00   0.000000000000e+00
  44065     3    3.828125000000    0.546875000000    0.446125000000    0.078125000000   0.000000000000e+00   0.000000000000e+00   0.000000000000e+00
  44066     3    3.984375000000    0.546875000000    0.446125000000    0.078125000000   0.000000000000e+00   0.000000000000e+00   0.000000000000e+00
  44034     3    3.984375000000    0.390625000000    0.446125000000    0.078125000000   5.354321545592e+01   5.354321545592e+01   1.735420654260e+02