ITEM: TIMESTEP
3910000
ITEM: NUMBER OF ATOMS
1108
ITEM: BOX BOUNDS ff ff ff
0.0000000000000000e+00 5.0000000000000000e+00
0.0000000000000000e+00 5.0000000000000000e+00
0.0000000000000000e+00 3.0156250000000000e+01
ITEM: ATOMS id type x y z radius fx fy fz
    143     1    4.375000000000    0.196478556573    0.187324685120    0.200000000000  -6.240987614278e-17   3.909340607614e-02   2.669745467272e-01
    302     1    0.312500000000    0.468750000000    0.192909466605    0.200000000000  -1.019765636157e-16   1.648593952223e-17   6.705979514390e-02
    169     1    1.718750000000    0.312500000000    0.192909466605    0.200000000000  -5.181792233549e-17  -6.859132400017e-17   6.705979518335e-02
    183     1    2.500000000000    0.468750000000    0.192909466605    0.200000000000  -5.953196306036e-17   1.681041433312e-17   6.705979518335e-02
    436     1    2.968750000000    0.312500000000    0.192909466605    0.200000000000  -2.323514318993e-18   1.390752909913e-15   6.705979518733e-02
    229     1    3.437500000000    0.312500000000    0.192909466605    0.200000000000  -4.724137742603e-17   3.002563333352e-17   6.705979517938e-02
    502     1    3.906250000000    0.312500000000    0.192909466605    0.200000000000   4.957779615886e-17  -1.237795143285e-16   6.705979518335e-02
     34     1    4.687500000000    0.468750000000    0.192909466605    0.200000000000   6.469915189172e-15  -8.029351377026e-15   6.705979518335e-02
     93     1    1.093750000000    0.625000000000    0.192909466605    0.200000000000  -1.103082227387e-15  -4.061713607149e-17   6.705979518722e-02
    373     1    2.031250000000    0.625000000000    0.192909466605    0.200000000000  -7.537941351500e-16   8.559570268094e-15   6.705979518324e-02
    432     1    2.968750000000    0.781250000000    0.192909466605    0.200000000000   8.493194910825e-16  -2.717341649330e-17   6.705979518324e-02
    236     1    3.593750000000    0.781250000000    0.192909466605    0.200000000000  -2.903115673842e-16  -3.562634209240e-18   6.705979518324e-02
     37     1    4.062500000000    0.781250000000    0.192909466605    0.200000000000   3.678666299466e-16  -9.357929599909e-17   6.705979518324e-02
    317     1    0.312500000000    0.937500000000    0.192909466605    0.200000000000  -6.980563553493e-17  -1.452045163687e-16   6.705979517938e-02
    147     1    1.250000000000    1.093750000000    0.192909466605    0.200000000000  -2.675071842106e-17   3.278898281101e-17   6.705979518324e-02
    369     1    1.718750000000    0.937500000000    0.192909466605    0.200000000000   1.589256565923e-15  -4.070930233141e-16   6.705979514402e-02
     33     1    2.343750000000    0.937500000000    0.192909466605    0.200000000000  -1.270692360694e-17   5.424552145701e-16   6.705979518347e-02
    425     1    3.281250000000    1.093750000000    0.192909466605    0.200000000000   3.643141308303e-16   3.940229410580e-17   6.705979518324e-02
    321     1    4.531250000000    0.937500000000    0.192909466605    0.200000000000   1.106391688991e-15  -1.541800974670e-15   6.705979518335e-02
    338     1    0.781250000000    1.250000000000    0.192909466605    0.200000000000  -2.017375836960e-16   1.252883353993e-14   6.705979517915e-02
    307     1    1.562500000000    1.406250000000    0.192909466605    0.200000000000   1.810842029710e-16  -2.519108128600e-16   6.705979514402e-02
    148     1    2.812500000000    1.250000000000    0.192909466605    0.200000000000   1.970467788440e-16  -4.913578631725e-17   6.705979517915e-02
    113     1    3.412327821177    1.558861890289    0.189168407326    0.200000000000  -4.141041039961e-02  -2.486529989012e-02   2.009463837153e-01
     41     1    3.906250000000    1.250000000000    0.192909466605    0.200000000000   9.616345737227e-17   7.892585612832e-16   6.705979518335e-02
    150     1    0.196478583044    1.562500000000    0.187324686884    0.200000000000   3.909346078804e-02   2.942956759463e-17   2.669751047811e-01
      3     1    0.625000000000    1.718750000000    0.192909466605    0.200000000000   7.466305871456e-17  -3.688670621538e-18   6.705979518324e-02
    271     1    1.093750000000    1.562500000000    0.192909466605    0.200000000000   7.679040716187e-17   1.232145638893e-16   6.705979517938e-02
    371     1    2.187500000000    1.562500000000    0.192909466605    0.200000000000   2.090696738238e-16  -1.030244262889e-16   6.705979518335e-02
    379     1    2.503638357607    1.849841604969    0.189170398498    0.200000000000   2.486268391140e-02  -4.140698908262e-02   2.008759362457e-01
     19     1    2.968750000000    1.718750000000    0.192909466605    0.200000000000  -1.351771812080e-16  -2.933207667655e-17   6.705979517915e-02
    124     1    3.775112564420    1.722389177731    0.189177022846    0.200000000000   4.139554798311e-02   2.485394542898e-02   2.006416450758e-01
    358     1    0.937500000000    2.031250000000    0.192909466605    0.200000000000  -1.172647452926e-16   3.909647354507e-17   6.705979518324e-02
     73     1    1.562500000000    1.875000000000    0.192909466605    0.200000000000   1.774554587915e-15   2.579133375969e-16   6.705979518335e-02
     57     1    4.062500000000    2.031250000000    0.192909466605    0.200000000000   5.508683970279e-18  -2.620604240566e-17   6.705979518324e-02
    154     1    4.803521418565    1.875000000000    0.187324686777    0.200000000000  -3.909345751095e-02   1.415706925458e-17   2.669750709342e-01
     82     1    0.312500000000    2.187500000000    0.192909466605    0.200000000000   9.461181431810e-18   1.530732827322e-17   6.705979518335e-02
     13     1    2.340111068237    2.212626346939    0.189175030114    0.200000000000  -2.485657984682e-02   4.139899917840e-02   2.007121117338e-01
    174     1    2.968750000000    2.187500000000    0.192909466605    0.200000000000  -1.462406840442e-17  -4.636709106385e-16   6.705979522269e-02
    527     1    3.593750000000    2.187500000000    0.192909466605    0.200000000000   1.236640994656e-15  -6.310707676576e-17   6.705979518733e-02
    296     1    4.531250000000    2.187500000000    0.192909466605    0.200000000000   3.322542127926e-16   2.364063991997e-16   6.705979518335e-02
     72     1    1.406250000000    2.500000000000    0.192909466605    0.200000000000  -4.249776554611e-17   2.743281727230e-15   6.705979518335e-02
    207     1    2.031250000000    2.500000000000    0.192909466605    0.200000000000  -3.788560999620e-18   5.721596184408e-17   6.705979518335e-02
    105     1    2.500000000000    2.656250000000    0.192909466605    0.200000000000   4.995419680516e-17  -9.357537410046e-17   6.705979518335e-02
    343     1    3.125000000000    2.656250000000    0.192909466605    0.200000000000  -9.795091013084e-17  -3.220496638485e-16   6.705979518335e-02
    139     1    3.568649379843    2.652610609572    0.189178750221    0.200000000000  -4.139254966809e-02  -2.485165763564e-02   2.005805708088e-01
    325     1    4.375000000000    2.656250000000    0.192909466605    0.200000000000  -2.327120127663e-16  -3.304302481697e-16   6.705979518335e-02
     62     1    4.803521374484    2.656250000000    0.187324689714    0.200000000000  -3.909354852881e-02   1.257852052033e-18   2.669760005224e-01
    213     1    0.196478661922    2.968750000000    0.187324692139    0.200000000000   3.909362372592e-02  -1.564741094447e-18   2.669767680072e-01
     44     1    0.625000000000    2.968750000000    0.192909466605    0.200000000000   1.317582226394e-16  -2.858526515546e-16   6.705979514402e-02
     36     1    1.253638900249    2.943621889523    0.189174775172    0.200000000000   2.485691654121e-02  -4.139944010587e-02   2.007211277858e-01
    465     1    3.931434124809    2.816137894404    0.189166682063    0.200000000000   4.141336811174e-02   2.486756240516e-02   2.010074320997e-01
    129     1    1.090111610716    3.306406631385    0.189170653308    0.200000000000  -2.486234880642e-02   4.140655065752e-02   2.008669219817e-01
    537     1    1.562500000000    3.281250000000    0.192909466605    0.200000000000  -7.548393664039e-17  -2.141357863317e-16   6.705979518335e-02
    209     1    2.343750000000    3.125000000000    0.192909466605    0.200000000000   2.007106654359e-18  -9.666433589472e-17   6.705979517938e-02
    172     1    2.968750000000    3.125000000000    0.192909466605    0.200000000000   7.501862468477e-15  -7.408847086972e-15   6.705979517938e-02
    478     1    3.906250000000    3.281250000000    0.192909466605    0.200000000000   3.288721882773e-17   8.362763213776e-16   6.705979518335e-02
    404     1    4.375000000000    3.125000000000    0.192909466605    0.200000000000   1.049956509070e-14   3.762002163097e-16   6.705979518324e-02
     81     1    0.468750000000    3.437500000000    0.192909466605    0.200000000000   6.492423457502e-17   1.686029354601e-16   6.705979518324e-02
    471     1    3.281250000000    3.593750000000    0.192909466605    0.200000000000   8.169025226998e-17   8.821779073584e-18   6.705979518335e-02
    270     1    4.218750000000    3.593750000000    0.192909466605    0.200000000000   1.383664890235e-15  -1.146241583126e-14   6.705979518722e-02
    132     1    4.687500000000    3.593750000000    0.192909466605    0.200000000000   1.048783138944e-16  -6.525778221347e-17   6.705979518347e-02
    336     1    0.196478708877    3.906250000000    0.187324695268    0.200000000000   3.909372077404e-02   2.150025040797e-17   2.669777581250e-01
    403     1    0.781250000000    3.906250000000    0.192909466605    0.200000000000  -1.284636753977e-17  -1.831813089074e-18   6.705979517915e-02
     59     1    1.718750000000    3.906250000000    0.192909466605    0.200000000000   1.534799222660e-15  -1.568891635885e-16   6.705979518335e-02
    135     1    2.343750000000    3.750000000000    0.192909466605    0.200000000000  -2.410077965331e-16   2.981346553287e-17   6.705979514402e-02
    380     1    2.812500000000    3.750000000000    0.192909466605    0.200000000000  -7.379633915584e-16  -2.631019153572e-17   6.705979518335e-02
    428     1    3.750000000000    3.750000000000    0.192909466605    0.200000000000  -8.520385460286e-16   4.441809655351e-17   6.705979518324e-02
    496     1    0.468750000000    4.218750000000    0.192909466605    0.200000000000  -1.966699997251e-16   1.978507816506e-17   6.705979518347e-02
     85     1    1.406250000000    4.218750000000    0.192909466605    0.200000000000   1.324441406834e-15   6.524021012179e-16   6.705979518722e-02
    225     1    2.031250000000    4.218750000000    0.192909466605    0.200000000000   9.207372776331e-16  -1.301559504832e-17   6.705979517915e-02
    412     1    2.816138677268    4.349859426387    0.189172973713    0.200000000000   2.485929353361e-02  -4.140255223965e-02   2.007848416429e-01
    525     1    3.125000000000    4.062500000000    0.192909466605    0.200000000000   6.023582091352e-18   3.256253177337e-17   6.705979517938e-02
    333     1    4.062500000000    4.218750000000    0.192909466605    0.200000000000   1.361732930939e-17  -9.168524538420e-17   6.705979518324e-02
    238     1    0.937500000000    4.375000000000    0.192909466605    0.200000000000   8.042364164353e-16   4.796643335894e-18   6.705979517938e-02
    162     1    1.718750000000    4.531250000000    0.192909466605    0.200000000000  -1.003508199745e-17  -1.412360990865e-17   6.705979518335e-02
    526     1    3.593750000000    4.375000000000    0.192909466605    0.200000000000  -5.530129923591e-17  -2.473087274440e-17   6.705979518347e-02
    442     1    4.687500000000    4.375000000000    0.192909466605    0.200000000000   1.789066827891e-16   3.456763486195e-17   6.705979518324e-02
    118     1    0.468750000000    4.687500000000    0.192909466605    0.200000000000  -3.735447229347e-17   4.758312379979e-17   6.705979518324e-02
    286     1    1.093750000000    4.803521391636    0.187324688571    0.200000000000   1.352540401820e-17  -3.909351325507e-02   2.669756391422e-01
    288     1    2.187500000000    4.687500000000    0.192909466605    0.200000000000  -4.244524832290e-16  -4.913722304391e-15   6.705979514390e-02
     91     1    2.652611387124    4.712644167846    0.189172454272    0.200000000000  -2.485997793777e-02   4.140344826063e-02   2.008032143910e-01
    421     1    3.125000000000    4.687500000000    0.192909466605    0.200000000000   1.214103477097e-17  -7.536125742006e-17   6.705979518324e-02
    292     1    4.218750000000    4.687500000000    0.192909466605    0.200000000000  -5.251213634979e-17   4.662814534640e-17   6.705979518324e-02
    467     1    4.687500000000    4.803521344095    0.187324691738    0.200000000000  -1.007325164623e-17  -3.909361138140e-02   2.669766411138e-01
  43978     3    0.234375000000    0.234375000000    0.446125000000    0.078125000000   0.000000000000e+00   0.000000000000e+00   0.000000000000e+00
  43977     3    0.078125000000    0.234375000000    0.446125000000    0.078125000000   0.000000000000e+00   0.000000000000e+00   0.000000000000e+00
  43946     3    0.234375000000    0.078125000000    0.446125000000    0.078125000000   0.000000000000e+00   0.000000000000e+00   0.000000000000e+00
  43945     3    0.078125000000    0.078125000000    0.446125000000    0.078125000000   0.000000000000e+00   0.000000000000e+00   0.000000000000e+00
  43979     3    0.390625000000    0.234375000000    0.446125000000    0.078125000000   0.000000000000e+00   0.000000000000e+00   0.000000000000e+00
  43947     3    0.390625000000    0.078125000000    0.446125000000    0.078125000000   0.000000000000e+00   0.000000000000e+00   0.000000000000e+00
  43948     3    0.546875000000    0.078125000000    0.446125000000    0.078125000000   0.000000000000e+00   0.000000000000e+00   0.000000000000e+00
  43980     3    0.546875000000    0.234375000000    0.446125000000    0.078125000000   0.000000000000e+00   0.000000000000e+00   0.000000000000e+00
  43982     3    0.859375000000    0.234375000000    0.446125000000    0.078125000000   0.000000000000e+00   0.000000000000e+00   0.000000000000e+00
  43949     3    0.703125000000    0.078125000000    0.446125000000    0.078125000000   0.000000000000e+00   0.000000000000e+00   0.000000000000e+00
  43981     3    0.703125000000    0.234375000000    0.446125000000    0.078125000000   0.000000000000e+00   0.000000000000e+00   0.000000000000e+00
  43950     3    0.859375000000    0.078125000000    0.446125000000    0.078125000000   0.000000000000e+00   0.000000000000e+00   0.000000000000e+00
  43983     3    1.015625000000    0.234375000000    0.446125000000    0.078125000000   0.000000000000e+00   0.000000000000e+00   0.000000000000e+00
  43984     3    1.171875000000    0.234375000000    0.446125000000    0.078125000000   0.000000000000e+00   0.000000000000e+00   0.000000000000e+00
  43952     3    1.171875000000    0.078125000000    0.446125000000    0.078125000000   0.000000000000e+00   0.000000000000e+00   0.000000000000e+00
  43951     3    1.015625000000    0.078125000000    0.446125000000    0.078125000000   0.000000000000e+00   0.000000000000e+00   0.000000000000e+00
  43986     3    1.484375000000    0.234375000000    0.446125000000    0.078125000000   0.000000000000e+00   0.000000000000e+00   0.000000000000e+00
  43985     3    1.328125000000    0.234375000000    0.446125000000    0.078125000000   0.000000000000e+00   0.000000000000e+00   0.000000000000e+00
  43954     3    1.484375000000    0.078125000000    0.446125000000    0.078125000000   0.000000000000e+00   0.000000000000e+00   0.000000000000e+00
  43953     3    1.328125000000    0.078125000000    0.446125000000    0.078125000000   0.000000000000e+00   0.000000000000e+00   0.000000000000e+00
  43988     3    1.796875000000    0.234375000000    0.446125000000    0.078125000000   5.354321545592e+01  -5.354321545592e+01   1.735420654260e+02
  43956     3    1.796875000000    0.078125000000    0.446125000000    0.078125000000   0.000000000000e+00   0.000000000000e+00   0.000000000000e+00
  43987     3    1.640625000000    0.234375000000    0.446125000000    0.078125000000  -5.354321545592e+01  -5.354321545592e+01   1.735420654260e+02
  43955     3    1.640625000000    0.078125000000    0.446125000000    0.078125000000   0.000000000000e+00   0.000000000000e+00   0.000000000000e+00
  43957     3    1.953125000000    0.078125000000    0.446125000000    0.078125000000   0.000000000000e+00   0.000000000000e+00   0.000000000000e+00
  43958     3    2.109375000000    0.078125000000    0.446125000000    0.078125000000   0.000000000000e+00   0.000000000000e+00   0.000000000000e+00
  43990     3    2.109375000000    0.234375000000    0.446125000000    0.078125000000   0.000000000000e+00   0.000000000000e+00   0.000000000000e+00
  43989     3    1.953125000000    0.234375000000    0.446125000000    0.078125000000   0.000000000000e+00   0.000000000000e+00   0.000000000000e+00
  43991     3    2.265625000000    0.234375000000    0.446125000000    0.078125000000   0.000000000000e+00   0.000000000000e+00   0.000000000000e+00
  43960     3    2.421875000000    0.078125000000    0.446125000000    0.078125000000   0.000000000000e+00   0.000000000000e+00   0.000000000000e+00
  43959     3    2.265625000000    0.078125000000    0.446125000000    0.078125000000   0.000000000000e+00   0.000000000000e+00   0.000000000000e+00
  43992     3    2.421875000000    0.234375000000    0.446125000000    0.078125000000   0.000000000000e+00   0.000000000000e+00   0.000000000000e+00
  43961     3    2.578125000000    0.078125000000    0.446125000000    0.078125000000   0.000000000000e+00   0.000000000000e+00   0.000000000000e+00
  43993     3    2.578125000000    0.234375000000    0.446125000000    0.078125000000   0.000000000000e+00   0.000000000000e+00   0.000000000000e+00
  43994     3    2.734375000000    0.234375000000    0.446125000000    0.078125000000   0.000000000000e+00   0.000000000000e+00   0.000000000000e+00
  43962     3    2.734375000000    0.078125000000    0.446125000000    0.078125000000   0.000000000000e+00   0.000000000000e+00   0.000000000000e+00
  43995     3    2.890625000000    0.234375000000    0.446125000000    0.078125000000  -5.354321545592e+01  -5.354321545592e+01   1.735420654260e+02
  43964     3    3.046875000000    0.078125000000    0.446125000000    0.078125000000   0.000000000000e+00   0.000000000000e+00   0.000000000000e+00
  43996     3    3.046875000000    0.234375000000    0.446125000000    0.078125000000   5.354321545592e+01  -5.354321545592e+01   1.735420654260e+02
  43963     3    2.890625000000    0.078125000000    0.446125000000    0.078125000000   0.000000000000e+00   0.000000000000e+00   0.000000000000e+00
  43965     3    3.203125000000    0.078125000000    0.446125000000    0.078125000000   0.000000000000e+00   0.000000000000e+00   0.000000000000e+00
  43997     3    3.203125000000    0.234375000000    0.446125000000    0.078125000000   0.000000000000e+00   0.000000000000e+00   0.000000000000e+00
  43966     3    3.359375000000    0.078125000000    0.446125000000    0.078125000000   0.000000000000e+00   0.000000000000e+00   0.000000000000e+00
  43998     3    3.359375000000    0.234375000000    0.446125000000    0.078125000000  -5.354321545592e+01  -5.354321545592e+01   1.735420654260e+02
  43968     3    3.671875000000    0.078125000000    0.446125000000    0.078125000000   0.000000000000e+00   0.000000000000e+00   0.000000000000e+00
  44000     3    3.671875000000    0.234375000000    0.446125000000    0.078125000000   0.000000000000e+00   0.000000000000e+00   0.000000000000e+00
  43999     3    3.515625000000    0.234375000000    0.446125000000    0.078125000000   5.354321545592e+01  -5.354321545592e+01   1.735420654260e+02
  43967     3    3.515625000000    0.078125000000    0.446125000000    0.078125000000   0.000000000000e+00   0.000000000000e+00   0.000000000000e+00
  44001     3    3.828125000000    0.234375000000    0.446125000000    0.078125000000  -5.354321545592e+01  -5.354321545592e+01   1.735420654260e+02
  43969     3    3.828125000000    0.078125000000    0.446125000000    0.078125000000   0.000000000000e+00   0.000000000000e+00   0.000000000000e+00
  44002     3    3.984375000000    0.234375000000    0.446125000000    0.078125000000   5.354321545592e+01  -5.354321545592e+01   1.735420654260e+02
  43970     3    3.984375000000    0.078125000000    0.446125000000    0.078125000000   0.000000000000e+00   0.000000000000e+00   0.000000000000e+00
  44004     3    4.296875000000    0.234375000000    0.446125000000    0.078125000000  -2.504091768822e+02   1.214671002283e+02   8.295164649735e+02
  43972     3    4.296875000000    0.078125000000    0.446125000000    0.078125000000   0.000000000000e+00   0.000000000000e+00   0.000000000000e+00
  44003     3    4.140625000000    0.234375000000    0.446125000000    0.078125000000   0.000000000000e+00   0.000000000000e+00   0.000000000000e+00
  43971     3    4.140625000000    0.078125000000    0.446125000000    0.078125000000   0.000000000000e+00   0.000000000000e+00   0.000000000000e+00
  44005     3    4.453125000000    0.234375000000    0.446125000000    0.078125000000   2.504091768822e+02   1.214671002283e+02   8.295164649735e+02
  43973     3    4.453125000000    0.078125000000    0.446125000000    0.078125000000   0.000000000000e+00   0.000000000000e+00   0.000000000000e+00
  44006     3    4.609375000000    0.234375000000    0.446125000000    0.078125000000   0.000000000000e+00   0.000000000000e+00   0.000000000000e+00
  43974     3    4.609375000000    0.078125000000    0.446125000000    0.078125000000   0.000000000000e+00   0.000000000000e+00   0.000000000000e+00
  44008     3    4.921875000000    0.234375000000    0.446125000000    0.078125000000   0.000000000000e+00   0.000000000000e+00   0.000000000000e+00
  44007     3    4.765625000000    0.234375000000    0.446125000000    0.078125000000   0.000000000000e+00   0.000000000000e+00   0.000000000000e+00
  43975     3    4.765625000000    0.078125000000    0.446125000000    0.078125000000   0.000000000000e+00   0.000000000000e+00   0.000000000000e+00
  43976     3    4.921875000000    0.078125000000    0.446125000000    0.078125000000   0.000000000000e+00   0.000000000000e+00   0.000000000000e+00
  44010     3    0.234375000000    0.390625000000    0.446125000000    0.078125000000  -5.354321545592e+01  -5.354321545592e+01   1.735420654260e+02
  44041     3    0.078125000000    0.546875000000    0.446125000000    0.078125000000   0.000000000000e+00   0.000000000000e+00   0.000000000000e+00
  44009     3    0.078125000000    0.390625000000    0.446125000000    0.078125000000   0.000000000000e+00   0.000000000000e+00   0.000000000000e+00
  44042     3    0.234375000000    0.546875000000    0.446125000000    0.078125000000  -5.354321545592e+01   5.354321545592e+01   1.735420654260e+02
  44011     3    0.390625000000    0.390625000000    0.446125000000    0.078125000000   5.354321545592e+01  -5.354321545592e+01   1.735420654260e+02
  44044     3    0.546875000000    0.546875000000    0.446125000000    0.078125000000   0.000000000000e+00   0.000000000000e+00   0.000000000000e+00
  44012     3    0.546875000000    0.390625000000    0.446125000000    0.078125000000   0.000000000000e+00   0.000000000000e+00   0.000000000000e+00
  44043     3    0.390625000000    0.546875000000    0.446125000000    0.078125000000   5.354321545592e+01   5.354321545592e+01   1.735420654260e+02
  44046     3    0.859375000000    0.546875000000    0.446125000000    0.078125000000   0.000000000000e+00   0.000000000000e+00   0.000000000000e+00
  44045     3    0.703125000000    0.546875000000    0.446125000000    0.078125000000   0.000000000000e+00   0.000000000000e+00   0.000000000000e+00
  44014     3    0.859375000000    0.390625000000    0.446125000000    0.078125000000   0.000000000000e+00   0.000000000000e+00   0.000000000000e+00
  44013     3    0.703125000000    0.390625000000    0.446125000000    0.078125000000   0.000000000000e+00   0.000000000000e+00   0.000000000000e+00
  44048     3    1.171875000000    0.546875000000    0.446125000000    0.078125000000   5.354321545592e+01  -5.354321545592e+01   1.735420654260e+02
  44047     3    1.015625000000    0.546875000000    0.446125000000    0.078125000000  -5.354321545592e+01  -5.354321545592e+01   1.735420654260e+02
  44016     3    1.171875000000    0.390625000000    0.446125000000    0.078125000000   0.000000000000e+00   0.000000000000e+00   0.000000000000e+00
  44015     3    1.015625000000    0.390625000000    0.446125000000    0.078125000000   0.000000000000e+00   0.000000000000e+00   0.000000000000e+00
  44050     3    1.484375000000    0.546875000000    0.446125000000    0.078125000000   0.000000000000e+00   0.000000000000e+00   0.000000000000e+00
  44049     3    1.328125000000    0.546875000000    0.446125000000    0.078125000000   0.000000000000e+00   0.000000000000e+00   0.000000000000e+00
  44018     3    1.484375000000    0.390625000000    0.446125000000    0.078125000000   0.000000000000e+00   0.000000000000e+00   0.000000000000e+00
  44017     3    1.328125000000    0.390625000000    0.446125000000    0.078125000000   0.000000000000e+00   0.000000000000e+00   0.000000000000e+00
  44051     3    1.640625000000    0.546875000000    0.446125000000    0.078125000000   0.000000000000e+00   0.000000000000e+00   0.000000000000e+00
  44020     3    1.796875000000    0.390625000000    0.446125000000    0.078125000000   5.354321545592e+01   5.354321545592e+01   1.735420654260e+02
  44052     3    1.796875000000    0.546875000000    0.446125000000    0.078125000000   0.000000000000e+00   0.000000000000e+00   0.000000000000e+00
  44019     3    1.640625000000    0.390625000000    0.446125000000    0.078125000000  -5.354321545592e+01   5.354321545592e+01   1.735420654260e+02
  44022     3    2.109375000000    0.390625000000    0.446125000000    0.078125000000   0.000000000000e+00   0.000000000000e+00   0.000000000000e+00
  44053     3    1.953125000000    0.546875000000    0.446125000000    0.078125000000  -5.354321545592e+01  -5.354321545592e+01   1.735420654260e+02
  44054     3    2.109375000000    0.546875000000    0.446125000000    0.078125000000   5.354321545592e+01  -5.354321545592e+01   1.735420654260e+02
  44021     3    1.953125000000    0.390625000000    0.446125000000    0.078125000000   0.000000000000e+00   0.000000000000e+00   0.000000000000e+00
  44024     3    2.421875000000    0.390625000000    0.446125000000    0.078125000000  -5.354321545592e+01  -5.354321545592e+01   1.735420654260e+02
  44056     3    2.421875000000    0.546875000000    0.446125000000    0.078125000000  -5.354321545592e+01   5.354321545592e+01   1.735420654260e+02
  44023     3    2.265625000000    0.390625000000    0.446125000000    0.078125000000   0.000000000000e+00   0.000000000000e+00   0.000000000000e+00
  44055     3    2.265625000000    0.546875000000    0.446125000000    0.078125000000   0.000000000000e+00   0.000000000000e+00   0.000000000000e+00
  44026     3    2.734375000000    0.390625000000    0.446125000000    0.078125000000   0.000000000000e+00   0.000000000000e+00   0.000000000000e+00
  44057     3    2.578125000000    0.546875000000    0.446125000000    0.078125000000   5.354321545592e+01   5.354321545592e+01   1.735420654260e+02
  44025     3    2.578125000000    0.390625000000    0.446125000000    0.078125000000   5.354321545592e+01  -5.354321545592e+01   1.735420654260e+02
  44058     3    2.734375000000    0.546875000000    0.446125000000    0.078125000000   0.000000000000e+00   0.000000000000e+00   0.000000000000e+00
  44060     3    3.046875000000    0.546875000000    0.446125000000    0.078125000000   0.000000000000e+00   0.000000000000e+00   0.000000000000e+00
  44028     3    3.046875000000    0.390625000000    0.446125000000    0.078125000000   5.354321545592e+01   5.354321545592e+01   1.735420654260e+02
  44059     3    2.890625000000    0.546875000000    0.446125000000    0.078125000000   0.000000000000e+00   0.000000000000e+00   0.000000000000e+00
  44027     3    2.890625000000    0.390625000000    0.446125000000    0.078125000000  -5.354321545592e+01   5.354321545592e+01   1.735420654260e+02
  44030     3    3.359375000000    0.390625000000    0.446125000000    0.078125000000  -5.354321545592e+01   5.354321545592e+01   1.735420654260e+02
  44061     3    3.203125000000    0.546875000000    0.446125000000    0.078125000000   0.000000000000e+00   0.000000000000e+00   0.000000000000e+00
  44062     3    3.359375000000    0.546875000000    0.446125000000    0.078125000000   0.000000000000e+00   0.000000000000e+00   0.000000000000e+00
  44029     3    3.203125000000    0.390625000000    0.446125000000    0.078125000000   0.000000000000e+00   0.000000000000e+00   0.000000000000e+00
  44032     3    3.671875000000    0.390625000000    0.446125000000    0.078125000000   0.000000000000e+00   0.000000000000e+00   0.000000000000e+00
  44063     3    3.515625000000    0.546875000000    0.446125000000    0.078125000000   0.000000000000e+00   0.000000000000e+00   0.000000000000e+00
  44031     3    3.515625000000    0.390625000000    0.446125000000    0.078125000000   5.354321545592e+01   5.354321545592e+01   1.735420654260e+02
  44064     3    3.671875000000    0.546875000000    0.446125000000    0.078125000000   0.000000000000e+00   0.000000000000e+00   0.000000000000e+00
  44065     3    3.828125000000    0.546875000000    0.446125000000    0.078125000000   0.000000000000e+00   0.000000000000e+00   0.000000000000e+00
  44066     3    3.984375000000    0.546875000000    0.446125000000    0.078125000000   0.000000000000e+00   0.000000000000e+00   0.000000000000e+00
  44034     3    3.984375000000    0.390625000000    0.446125000000    0.078125000000   5.354321545592e+01   5.354321545592e+01   1.735420654260e+02