LAMMPS data file

  8631  atoms

   3 atom types

  0.0000000000000000000  50.0000000000000000000 xlo xhi
  0.0000000000000000000  50.0000000000000000000 ylo yhi
  0.0000000000000000000 100.8333333333333285964 zlo zhi

Atoms # sphere

    1    1  5.94828  4.85000    5.626586664646563   43.051776520406797   33.729432952370928
    2    1  5.84483  4.85000   23.808123758703179   44.411375282674101   12.683863804475029
    3    1  5.84483  4.85000   10.095578924908320    9.261682347367156   73.785144593532607
    4    1  5.74138  4.85000    3.778166127979818   32.759537627516799   19.920403102849686
    5    1  5.74138  4.85000    6.887363453252506   32.918319534043100   48.141447084839641
    6    1  5.74138  4.85000   39.731155754677147   30.414173629367568   40.592055474276819
    7    1  5.63793  4.85000   12.669393584560169   14.819071221388187    9.356247969927463
    8    1  5.63793  4.85000   38.129846732654080   31.870735063041547   78.006436205551196
    9    1  5.63793  4.85000   10.002473026667076   41.646156771813523   38.954644398817265
   10    1  5.63793  4.85000   39.101593861510814   43.823697266982336   23.542133527069016
   11    1  5.53448  4.85000   41.798829073968278   35.596831226063273   23.768830851197315
   12    1  5.53448  4.85000   24.337044588368002    6.982451621300775   58.407794956077986
   13    1  5.53448  4.85000   13.035704979236939   47.072577217657440   17.554486049722943
   14    1  5.53448  4.85000   38.352703219186722    8.775859215018562   26.258413946883373
   15    1  5.53448  4.85000   12.106620476682734   25.061745411169781   26.875999728715634
   16    1  5.53448  4.85000   15.757832384682018   37.312469763287098   48.187380522680336
   17    1  5.43103  4.85000   31.351414121847679   37.237738424213624   11.545076588038810
   18    1  5.43103  4.85000    3.026475172341133   20.663299177298708   10.736938778928781
   19    1  5.43103  4.85000   23.626130752126336   43.505354979706723    4.362855742016670
   20    1  5.43103  4.85000   27.703261089946128   20.334706311676850   49.079196871455480
   21    1  5.43103  4.85000   19.994105186699993   15.007368488940628   24.546543595161300
   22    1  5.43103  4.85000   29.452785714870913   10.046778588036846   75.745177103353015
   23    1  5.43103  4.85000    4.666639431663347    9.543317560600681   23.865191309234618
   24    1  5.43103  4.85000   34.563835694442979   28.339113942029542   55.410700659707857
   25    1  5.32759  4.85000   15.029839486016380   36.441632779257866   84.920794676982467
   26    1  5.32759  4.85000   20.268190600375448   20.599209284499686   15.649648010923841
   27    1  5.32759  4.85000   32.725818926063411   33.517311163275238   25.559236594794395
   28    1  5.32759  4.85000   46.092345242768921   24.462018150603480   85.207409257699211
   29    1  5.32759  4.85000    8.508855300615879    5.404904535322473   40.449925076116187
   30    1  5.32759  4.85000   30.011592772957947   30.164097407399495   75.220111638645918
   31    1  5.32759  4.85000    5.835276308314720    6.982730288375731    9.824324367962914
   32    1  5.32759  4.85000   20.331613487244233    7.373240730705122   45.833947247582643
   33    1  5.32759  4.85000   35.942284566980668   30.768021146810810   63.511143262898273
   34    1  5.32759  4.85000   25.545973903523745   29.617303087455323    8.199462780106398
   35    1  5.32759  4.85000   35.051131304731179   13.476505105848158   31.812994011589637
   36    1  5.22414  4.85000   31.774939286006408   46.988097108973676    4.827791656107847
   37    1  5.22414  4.85000   47.215688097384444   13.898878531737655   29.394301788587669
   38    1  5.22414  4.85000   15.851189046021441   26.267355782978964   62.793438984225048
   39    1  5.22414  4.85000   20.802089264382769   14.226171074414863   94.660550306096482
   40    1  5.22414  4.85000   15.541823674299925   42.802067198132569   85.135816378261438
   41    1  5.22414  4.85000   37.957682836326825   39.046317052735461   45.949696266414804
   42    1  5.22414  4.85000   32.396121773718022    9.277002982612185   92.360973360455688
   43    1  5.22414  4.85000    5.888676645677326   16.355951210212936   14.594478099554058
   44    1  5.22414  4.85000   31.555388751242162   41.675509702296637   38.523297318664000
   45    1  5.22414  4.85000   23.851860488881353   14.173779267635956   71.455107082757280
   46    1  5.22414  4.85000    5.117554681977426   20.736514327487679   21.985233905735910
   47    1  5.22414  4.85000   37.018481091771228   15.981531334009489   20.803303570039386
   48    1  5.22414  4.85000   23.059381750033833   16.683612396797269   44.888005345761528
   49    1  5.22414  4.85000   36.882192304213156   41.875522186236957   85.499388193566787
   50    1  5.12069  4.85000   24.590464800805890   43.323338043487801   39.947855419606931
   51    1  5.12069  4.85000    9.757780028078146   30.810387284124911   91.699387794422890
   52    1  5.12069  4.85000   19.203911598776774   20.940266964776900   41.832301556631634
   53    1  5.12069  4.85000    9.190732674264526   39.867693615646594   57.283042895319014
   54    1  5.12069  4.85000   38.207635377230758   12.780950789870374    8.512874333466240
   55    1  5.12069  4.85000   47.320641858223013   38.835796235358252   42.102567467598362
   56    1  5.12069  4.85000   30.470849007947855   18.914041990850890   61.048647911773948
   57    1  5.12069  4.85000   28.842847366866526   26.765900574671594   35.599331673708122
   58    1  5.12069  4.85000    5.361513903755917   19.859928645245372   46.823008310623116
   59    1  5.12069  4.85000   24.618245655352428   33.988921643483600   77.234130083935980
   60    1  5.12069  4.85000   10.620726960820269   42.195908529744329   89.846347978367135
   61    1  5.12069  4.85000   45.579412600819069   13.855577873276463   60.684091039771836
   62    1  5.12069  4.85000   29.279643155370554   41.363920803186929   26.732014197596591
   63    1  5.12069  4.85000   34.967410803842213   20.702407494364646   45.680371231410582
   64    1  5.12069  4.85000   34.862260645396454   18.427836339229003   51.328623730997620
   65    1  5.12069  4.85000   41.168930124804277   36.614368890010610   33.558447861864828
   66    1  5.12069  4.85000   41.673674626927941   42.375276407526876   89.658849096211199
   67    1  5.12069  4.85000   17.107525850355252   18.321607221665253   92.308169596802927
   68    1  5.01724  4.85000   27.468182125053403   18.121670078039344   16.106270114274942
   69    1  5.01724  4.85000   32.921210318061057   29.811150009179443   83.201513910381067
   70    1  5.01724  4.85000   19.272741607993062   21.969962395142787   20.541959105544720
   71    1  5.01724  4.85000    8.648492868497218   35.294309522480205   63.395754005291330
   72    1  5.01724  4.85000   33.181005062249106   34.030402122884524   44.503178114020862
   73    1  5.01724  4.85000   30.027629361100189   12.408924640705990   64.742124837970550
   74    1  5.01724  4.85000    4.390464742966160   34.604697650747269   25.021606788489194
   75    1  5.01724  4.85000   41.188410856944138   14.115593458378687    4.588116289841185
   76    1  5.01724  4.85000   24.688124183233313   28.863128500310971   74.668741586321516
   77    1  5.01724  4.85000    6.826374922083516   14.832621795279882   74.567720838449858
   78    1  5.01724  4.85000   17.227065446335132   39.173363378559948   36.813408912043442
   79    1  5.01724  4.85000   41.117760590459376   27.126089354181360   75.748233362206690
   80    1  5.01724  4.85000   16.375165160512115   42.002389689140884   50.904681939902908
   81    1  5.01724  4.85000   26.163999192318158   38.917250489254158   49.188633880896937
   82    1  5.01724  4.85000   17.607044104281556   10.806379828911574   27.603622087940657
   83    1  5.01724  4.85000   24.337164917341703   44.444595091626297   46.400867541987672
   84    1  5.01724  4.85000   16.295091943315214    3.156733134856203   77.479759872788151
   85    1  5.01724  4.85000   46.608257738586289    7.309533154147773   96.752794859957291
   86    1  5.01724  4.85000   32.410438437423743   18.475623509762475   18.052443627883015
   87    1  5.01724  4.85000   19.665777777460164   25.478853296841748   56.079869937847882
   88    1  5.01724  4.85000   46.190935497040179    7.003297213905314   57.262483589623358
   89    1  5.01724  4.85000    3.810119728430302   24.323463700271581   90.306781117342652
   90    1  5.01724  4.85000   11.878985738681548    3.910962005421024   68.246027020709349
   91    1  4.91379  4.85000   45.792778649090714   19.207587182638576   27.800332216869435
   92    1  4.91379  4.85000   29.121256091530920   20.348627568675589   86.888258200446472
   93    1  4.91379  4.85000    3.219983906725020   41.734444073962528   86.494092093939528
   94    1  4.91379  4.85000   16.625127941584743    9.427164500625230   35.327477500034448
   95    1  4.91379  4.85000   45.347188891418632   23.685533214614814   72.709500812072406
   96    1  4.91379  4.85000   29.396366186604681   22.755397140604948   55.133141182381372
   97    1  4.91379  4.85000   29.234461761682748    9.313760228111224   56.438949688110441
   98    1  4.91379  4.85000   13.244523426052574   27.900387107760650   46.631394973910076
   99    1  4.91379  4.85000   23.826590534697985   25.358493978333559   30.601849420329572
  100    1  4.91379  4.85000   13.341156582925667   42.292139388120617   28.007302569103665
  101    1  4.91379  4.85000   44.444472851197666   34.306429953535691   96.994794386455709
  102    1  4.91379  4.85000   16.313663433831721   28.202318702280387   39.278763290434540
  103    1  4.91379  4.85000   32.191785641975642   43.894516728539976   66.868463155507527
  104    1  4.91379  4.85000   38.524281939867365   45.872606941930528   68.286251785696564
  105    1  4.91379  4.85000   39.962914028298663   18.591757733228807   13.525029590071831
  106    1  4.91379  4.85000   19.293655548727276   33.345064827680268   33.507759363693268
  107    1  4.91379  4.85000   43.095770977354654   42.287526266561791   57.214325806902416
  108    1  4.91379  4.85000    5.960877374157317   23.093123221480948   32.170530140977263
  109    1  4.91379  4.85000   12.450755916138885    7.073795341447099   79.783416293740672
  110    1  4.91379  4.85000   27.760252932084807   22.419169405682702   76.397009150267394
  111    1  4.91379  4.85000   33.570460659017087   19.195830861716587   83.886963846511605
  112    1  4.91379  4.85000   30.204600138172836    3.173965589581904   14.138075634182773
  113    1  4.91379  4.85000   27.003846229586653   40.022137215382216   66.442223031173157
  114    1  4.91379  4.85000   31.671677620795709   28.648790565716343   11.482891893705915
  115    1  4.91379  4.85000   31.136067908616827    4.156909883958446   84.193714144781993
  116    1  4.91379  4.85000   44.220703644026102   18.047779557334007    4.729383463671510
  117    1  4.91379  4.85000   47.312208765091427   10.026137157069034   50.129997157767136
  118    1  4.91379  4.85000   17.050003483738191   46.740408157231805   62.352949161893392
  119    1  4.81034  4.85000    6.086227783792239   30.125370985411013   73.415041132340306
  120    1  4.81034  4.85000   25.554347491765906   23.809436871879736   21.787640491563078
  121    1  4.81034  4.85000   37.916586118033393   34.589336527828785   52.650871182879754
  122    1  4.81034  4.85000   45.091216247267432   26.058616562784348   38.494742143911708
  123    1  4.81034  4.85000   27.530458380452931   10.977383241656694   97.517019129959436
  124    1  4.81034  4.85000   24.702866293607176   10.601683684174935    8.797187727712263
  125    1  4.81034  4.85000   16.697347249368196   43.193060728298825   45.831037602172714
  126    1  4.81034  4.85000   16.853172733658344   20.023878210155004    3.402174276681975
  127    1  4.81034  4.85000   45.819903868237390   44.350738458018682   73.885051448022253
  128    1  4.81034  4.85000    2.768642650973666    8.466752388234683   16.911276883662772
  129    1  4.81034  4.85000   24.321622293555752   10.611524984233069   39.880589577580828
  130    1  4.81034  4.85000   28.618735082856066   30.467453884200332   22.297159137391024
  131    1  4.81034  4.85000   40.156975794880537   42.059796520807545   94.825032926984363
  132    1  4.81034  4.85000    7.396836388731993    4.705378058992973   22.058425420796716
  133    1  4.81034  4.85000   27.546072991728355   40.948606974130165   87.595670773548406
  134    1  4.81034  4.85000    9.143898348572925   30.692488478343439    7.777299247519277
  135    1  4.81034  4.85000   15.444535693671888   23.463529009164091   45.435887552954703
  136    1  4.81034  4.85000   11.621178072675644   39.134863789523308   72.236636587163446
  137    1  4.81034  4.85000   10.748510516661860    4.105394033222741   85.633283962122832
  138    1  4.81034  4.85000   14.288494148976827   13.912628947888996   48.463258126743106
  139    1  4.81034  4.85000   13.111373889952015   30.028973495092409   67.525093366065505
  140    1  4.81034  4.85000   13.408438990242933   38.799624780073323    3.854450887554210
  141    1  4.81034  4.85000    4.966902744283356   37.309234106823517   67.664309963356843
  142    1  4.81034  4.85000   27.389098919201189   26.644971440981216   96.760821227851181
  143    1  4.81034  4.85000   33.989975510964015   28.520696696370393   49.996168324359033
  144    1  4.81034  4.85000   10.863100382092375    9.774993102731589   36.935944225914319
  145    1  4.81034  4.85000   20.938474151008709   30.108582346351866   71.155522166139804
  146    1  4.81034  4.85000   25.058065202863759   41.517342030801792   55.514038095835311
  147    1  4.81034  4.85000   37.827634576700362   26.635974319171094   16.512125474427656
  148    1  4.81034  4.85000   20.761674473370775   15.676208487943411   58.404587674309994
  149    1  4.81034  4.85000    7.303969888734812   18.706295839662822   37.333381113566901
  150    1  4.81034  4.85000   37.874922888947729   20.363583319137636   63.808628685634332
  151    1  4.81034  4.85000   46.681139385215268   20.606153561803108   80.444326777331625
  152    1  4.70690  4.85000   31.706410532866418    4.420517481811395   38.079731252579919
  153    1  4.70690  4.85000   28.076665054374619   22.805985943884647   26.002098904083930
  154    1  4.70690  4.85000   31.402320509993373   14.382923716364663   59.374510292752838
  155    1  4.70690  4.85000   15.917217292893399   15.627913197522089   44.002237255719983
  156    1  4.70690  4.85000   46.357650069662768   33.150687344695733   82.583563992013907
  157    1  4.70690  4.85000   33.577626757360740    4.393330717464185   20.861751547163795
  158    1  4.70690  4.85000   19.997920060241903   37.282385069757993   53.330383479929104
  159    1  4.70690  4.85000    3.669442017343864   45.411927235814751   59.131468569036031
  160    1  4.70690  4.85000   20.163494891271366    8.989687721511070    8.236258163170195
  161    1  4.70690  4.85000    9.431647110400363   19.851336365545876   18.939711567467651
  162    1  4.70690  4.85000   14.205702523217742   23.501681714681038   87.431810763800343
  163    1  4.70690  4.85000   10.314748728242229   11.448816462574751    4.171696113139312
  164    1  4.70690  4.85000   21.409074440224344   27.627392466063615   17.856361487941964
  165    1  4.70690  4.85000   33.814307097070824   46.893595863775239   28.109066993598329
  166    1  4.70690  4.85000   27.530437246457133   18.804875084266673   33.917848172822232
  167    1  4.70690  4.85000    5.035849849808461   36.927931909074431   93.344668947921278
  168    1  4.70690  4.85000   24.829703439240991   11.260162672843304   88.949285104781893
  169    1  4.70690  4.85000   40.152239905277334   29.894535587665295   13.049851311156530
  170    1  4.70690  4.85000   29.433595152432801   23.394760682507126   71.014940759552886
  171    1  4.70690  4.85000   33.932809152599383   12.424660136166562   71.548392863170889
  172    1  4.70690  4.85000    2.795170791641036   22.734017629303246   65.908207260795720
  173    1  4.70690  4.85000    7.300234902463279   13.080825385763150   79.216435664946474
  174    1  4.70690  4.85000   38.248891936032521   22.823356838053073   74.254685699425224
  175    1  4.70690  4.85000   14.021561405646331   10.197691425251376   53.519379163029036
  176    1  4.70690  4.85000   41.624460244203796   10.767297989488323   17.478736347996708
  177    1  4.70690  4.85000    5.203673461808672   12.972551472177065   47.452165258440942
  178    1  4.70690  4.85000   33.660267683343776   33.832060227054306   86.632805754788805
  179    1  4.70690  4.85000   39.788238983306449   22.948323017323180   95.270373495941158
  180    1  4.70690  4.85000   18.586159992519313   44.541261792253131   95.735335897491510
  181    1  4.70690  4.85000   34.101514540211880   47.269934514437253   94.771442437118480
  182    1  4.70690  4.85000   32.826580953570080    2.892276910331547   57.625215486308846
  183    1  4.70690  4.85000   22.597795695392971   18.229260360518730   52.602061238610801
  184    1  4.70690  4.85000    7.510254018948762   21.839834756649271   76.364156012672325
  185    1  4.70690  4.85000   39.993397463050272   27.655109579747087   80.677581193409594
  186    1  4.70690  4.85000   11.914775552057005   21.721057474970564   11.792983109787770
  187    1  4.70690  4.85000   17.478771364864642   15.179654096566802    5.882710824723888
  188    1  4.70690  4.85000   46.214523250798806   23.151635411888272   46.450347364240265
  189    1  4.60345  4.85000    5.025455014083397   15.667656513294720   32.985543204753029
  190    1  4.60345  4.85000   20.047781230006873    5.731462196484307   89.696441720097880
  191    1  4.60345  4.85000   19.046252323076477   36.956890918858058   67.241044969156519
  192    1  4.60345  4.85000   46.476395016128613    6.813036546420385   30.692011075542286
  193    1  4.60345  4.85000   46.186017222551428   27.654409764672188   16.809527279947392
  194    1  4.60345  4.85000   21.015846851060640   26.867541343772501   45.259889753624243
  195    1  4.60345  4.85000   25.130624298008389   33.932590551064351   55.945316255002403
  196    1  4.60345  4.85000   16.488477885714822   34.006345921692557   23.222841884381623
  197    1  4.60345  4.85000    3.180539052027040   10.095957737467694   91.457850957842354
  198    1  4.60345  4.85000   27.533175124734534    7.461951773982092   43.055698710715397
  199    1  4.60345  4.85000    8.131818680473540    2.905405278018160   80.101386376387353
  200    1  4.60345  4.85000   35.483716306754808   19.867082296754983    6.986545674186345
  201    1  4.60345  4.85000   22.315925706715440    2.897351501883644   24.099996822602581
  202    1  4.60345  4.85000   30.281887162604271   24.867855714741420   50.751538290174942
  203    1  4.60345  4.85000    9.846286312232694    8.852474892031610   46.392312165169272
  204    1  4.60345  4.85000    8.857494469425902    6.585304538458535   27.279858164566935
  205    1  4.60345  4.85000    2.377059816506188   26.233503048765350   23.106263035783570
  206    1  4.60345  4.85000    4.769589793578955   16.670395253165207   67.323118537456068
  207    1  4.60345  4.85000   34.411098145990742   17.044701436135128   68.203486310280141
  208    1  4.60345  4.85000   39.385649622782509   39.336057679515513   62.184257490824287
  209    1  4.60345  4.85000    2.686777766883381   17.941780310821475   85.760686961081745
  210    1  4.60345  4.85000    2.566341413728451   28.401251645418931   15.212369454092446
  211    1  4.60345  4.85000   17.952059967995030   43.148079602783788   59.146123344506194
  212    1  4.60345  4.85000    2.710721850085744    8.771641491208182   67.601991130658888
  213    1  4.60345  4.85000   24.283558049530196   23.432594006741525   79.738562048265578
  214    1  4.60345  4.85000   37.086502745334919   22.254515972153293   11.107219303106543
  215    1  4.60345  4.85000   47.220277814455692   31.939364967440412   58.521334603660399
  216    1  4.60345  4.85000   20.574092830145361   13.440256839681489   48.574162934717457
  217    1  4.60345  4.85000   39.904808382623415   33.722593005968136    2.365730166119644
  218    1  4.60345  4.85000   22.397503725362238    5.621180813282193   74.887969341988310
  219    1  4.60345  4.85000    9.570428646871493   44.663773981330429   85.272796696879496
  220    1  4.60345  4.85000    3.530990521143467   42.345196269367428   70.579412359694402
  221    1  4.60345  4.85000   40.251770432424529   39.682785990406153   75.917122659707474
  222    1  4.60345  4.85000   44.379716000707447    2.970631390607168   18.534172472413093
  223    1  4.60345  4.85000    3.435989033129585   37.450041079548107    4.181274222716139
  224    1  4.60345  4.85000   19.231859997994867   18.736081184632688   80.929333380873871
  225    1  4.60345  4.85000   45.207964075734949    3.784894849183825   52.490452833276422
  226    1  4.60345  4.85000   25.173821349163482   21.731091667119870    4.290682277967203
  227    1  4.60345  4.85000   27.501519491501007   28.723193789502325   31.338716101865060
  228    1  4.60345  4.85000   39.157467367651499   23.808074196581273   36.481876081631341
  229    1  4.60345  4.85000   37.731118164790516   47.004174416330997   57.545217077941054
  230    1  4.50000  4.85000   27.204772993678429   35.369808990346513   34.616988448313414
  231    1  4.50000  4.85000   38.634504039103909   31.262814052233292   58.784032528579729
  232    1  4.50000  4.85000   24.795480689696003   34.054490195731134   67.920020756096804
  233    1  4.50000  4.85000   43.555172501690471   33.218828694892338   90.005329209922706
  234    1  4.50000  4.85000   25.140024090579825   43.138033120951434   30.153429082559779
  235    1  4.50000  4.85000   42.979342495725135   20.461943375100187   44.510085688088054
  236    1  4.50000  4.85000   14.508996383683211   27.277284204904930   83.267429097451824
  237    1  4.50000  4.85000   32.852556240624558   32.063592204419692   70.201323681096724
  238    1  4.50000  4.85000   44.613733582470751   22.241145655760306   57.719015919382464
  239    1  4.50000  4.85000   27.279918629469133   38.080236763626829    3.468620326403546
  240    1  4.50000  4.85000   42.015587976512862    8.774682676216912   85.509120840597177
  241    1  4.50000  4.85000   14.333412871907976   19.876050753841305   63.952060633690792
  242    1  4.50000  4.85000   30.174590135989437   31.384261203568141   15.737235955295406
  243    1  4.50000  4.85000   27.695512746535194    5.328501150042661   72.689683037545549
  244    1  4.50000  4.85000   35.335850561891995    8.242833528925132   86.292741742254421
  245    1  4.50000  4.85000   45.177581849928536   34.190626017299763   12.069146663477065
  246    1  4.50000  4.85000   37.663576439665974   33.792491410830451    9.424987289179061
  247    1  4.50000  4.85000   44.216446954579240    3.084426245215005   93.088717709793315
  248    1  4.50000  4.85000   24.468581083979892   22.317779523493979   69.398159670848131
  249    1  4.50000  4.85000   32.028297360435950   39.560681834838249   48.747623124243482
  250    1  4.50000  4.85000   30.631927782658629   10.108913926191867   48.216720442821533
  251    1  4.50000  4.85000   38.038401433013554   12.953903510689223   75.801507918246145
  252    1  4.50000  4.85000   20.152250457985684    4.928631623173549   39.449099471215142
  253    1  4.50000  4.85000    7.530466475085953   23.755924587839758   84.951214255239421
  254    1  4.50000  4.85000   11.785939899980063   11.706748818973528   25.717062003835292
  255    1  4.50000  4.85000   42.706315303536854   16.765905659118225   17.949837497101143
  256    1  4.50000  4.85000   27.897008540432672   38.978379025549636   61.547159154211855
  257    1  4.50000  4.85000   15.047514378014524   30.268404020526638   72.067067633893728
  258    1  4.50000  4.85000   43.624169441208323   47.080622226902946   66.081809111037217
  259    1  4.50000  4.85000    7.339565487837882   25.258275334734989   50.980526132827983
  260    1  4.50000  4.85000   30.657284372062723   20.295370552878577   95.280549723944546
  261    1  4.50000  4.85000   23.261298692621807   11.775349281981702   52.367976692809556
  262    1  4.50000  4.85000   31.885097992123644   46.519300978394398   38.239841156746365
  263    1  4.50000  4.85000   14.728172625802262   14.990919517112371   23.905071154915905
  264    1  4.50000  4.85000   13.038112885014661   16.315049895548679   61.501029774585206
  265    1  4.50000  4.85000    4.175612136525273    3.659000452270148   42.506139511540717
  266    1  4.50000  4.85000   19.828711139556429   22.592175581796770   73.571602832151243
  267    1  4.50000  4.85000    5.104899793811395    3.208926993462751   29.314806053550111
  268    1  4.50000  4.85000   36.518141445665236   18.131395185129730   33.808778239723594
  269    1  4.50000  4.85000   26.138343983318222   45.754556586541248   51.410669161888812
  270    1  4.50000  4.85000    9.265300414690405   12.961373416423067   90.839431877561296
  271    1  4.50000  4.85000    7.051139946883505   29.530410635669263   95.766298609484707
  272    1  4.50000  4.85000   14.385538249605958    3.168407276200988   31.037083587494905
  273    1  4.39655  4.85000    6.827116889948652   43.444382892017558   24.303186682849105
  274    1  4.39655  4.85000   10.256470377177802    2.729586130068666   14.545259670166365
  275    1  4.39655  4.85000   42.248550768335001   26.965049254700542   22.033700980657102
  276    1  4.39655  4.85000   47.055993549214122   46.250609464727333   53.297898231972717
  277    1  4.39655  4.85000   22.298342392905358   39.020941545018395   22.838448951568473
  278    1  4.39655  4.85000   28.002279998354204   32.740439818120251   86.795019545471149
  279    1  4.39655  4.85000   14.395266163423216    7.766382093853675   22.469214593249021
  280    1  4.39655  4.85000   24.717628402888245   22.731567424015577   89.717506727962800
  281    1  4.39655  4.85000   32.389668345592142   23.251376232854987   13.175102357176257
  282    1  4.39655  4.85000   12.852517621299118   24.213666954899125   94.497003395014985
  283    1  4.39655  4.85000   21.877750189290634   20.164312177244938   37.483189683773553
  284    1  4.39655  4.85000   31.570602841588556   14.646963864059620   87.981864787415020
  285    1  4.39655  4.85000    3.853427397499019   41.613547772592746   65.885617037393274
  286    1  4.39655  4.85000   28.068524782798686   34.517245186083606   94.966613537300091
  287    1  4.39655  4.85000    5.700281322243189   11.035668873971529   53.640923034950646
  288    1  4.39655  4.85000   27.280376897070902   25.536434478507182   84.524801439442655
  289    1  4.39655  4.85000   35.057218634496031   15.762388014209614   78.232091912538181
  290    1  4.39655  4.85000   11.745141164827192   30.356837938932120   54.711232379772412
  291    1  4.39655  4.85000    3.651865098912519   15.739902688321187   80.694280739004355
  292    1  4.39655  4.85000   12.694260398347808   24.584708329860359   35.269837722832733
  293    1  4.39655  4.85000   39.352198335379406   22.464389351703101   84.799840247315331
  294    1  4.39655  4.85000   33.748797596212448   45.346508612616610   15.689135627050943
  295    1  4.39655  4.85000   24.316367024416252   19.519409602054619   60.491812086541586
  296    1  4.39655  4.85000   27.637534027183271    6.497599156955820   37.400924294252164
  297    1  4.39655  4.85000   26.227031623149045   30.399372962060990   44.466638836555845
  298    1  4.39655  4.85000   21.653796685932612   37.233899700232257   61.757635789995568
  299    1  4.39655  4.85000    9.326139505462169   32.275926125264306   79.051654335452909
  300    1  4.39655  4.85000   27.400102427186546   47.630889701841653   19.321544513080408
  301    1  4.39655  4.85000   37.823168105047444    3.322889768700107    9.463188319776705
  302    1  4.39655  4.85000   10.396056155841938    5.040321239721129   57.758919555159622
  303    1  4.39655  4.85000   11.702506437687568   16.456008676658051   41.060674013428390
  304    1  4.39655  4.85000   18.290592068672893    6.797144293644939   14.551304379485266
  305    1  4.39655  4.85000   29.964010338586007   43.705543532517687   33.271650016859560
  306    1  4.39655  4.85000   39.889063231421474   47.077943179055083   91.266564148259704
  307    1  4.39655  4.85000   43.812119101821978   19.376280238850445   69.392796728382478
  308    1  4.39655  4.85000   35.129344152844929   26.988063599546038   92.674359650883616
  309    1  4.39655  4.85000   12.156973775027121   44.708965295907326   66.651301022308303
  310    1  4.39655  4.85000   20.577027404105507   42.464025964916196   26.319287634836055
  311    1  4.39655  4.85000   16.574849657215811   12.599621325177653   61.912619116063262
  312    1  4.39655  4.85000   21.518585584293547   11.177483087243040   79.707673344713612
  313    1  4.39655  4.85000    8.591263959742809   28.324244271241970   42.583814009091370
  314    1  4.39655  4.85000   39.823092316514064   12.444895618777180   33.205485165172888
  315    1  4.39655  4.85000   42.365642258575711   44.834597963709356   50.630937389431516
  316    1  4.39655  4.85000   11.609879534836097   28.549697389085591   37.991241959909786
  317    1  4.29310  4.85000   46.701856333407321   36.745773664449764   33.039003802383142
  318    1  4.29310  4.85000   32.546591000191654   22.959685658879650   74.850320048230643
  319    1  4.29310  4.85000   19.256793380145695    5.496626758411632   29.828758287386737
  320    1  4.29310  4.85000   17.304063525539963   43.173802503758473   69.286620234834103
  321    1  4.29310  4.85000   34.900133290587696   12.431717557991675   43.609952058636779
  322    1  4.29310  4.85000   18.181536554040683   47.719659063024416   87.901850578394672
  323    1  4.29310  4.85000    5.267209338174903   10.596869761370931   63.908607458285445