LAMMPS data file

  9064  atoms

   3 atom types

  0.0000000000000000000  50.0000000000000000000 xlo xhi
  0.0000000000000000000  50.0000000000000000000 ylo yhi
  0.0000000000000000000 100.8333333333333285964 zlo zhi

Atoms # sphere

    1    1  5.94828  4.85000   29.308910752839701   35.076301855513954   53.285773196319290
    2    1  4.81034  4.85000   21.131702393581811   33.014559748833918   40.131875859627520
    3    1  4.81034  4.85000   30.891639945521668   13.435694456731497   20.407905210180164
    4    1  4.81034  4.85000   28.420694552108646   26.096692261463510   21.875538939973772
    5    1  4.70690  4.85000   15.215939808088388   34.768401053438886   70.730493022732048
    6    1  4.70690  4.85000   24.950486551160662   34.927741941518143   49.484289263509119
    7    1  4.70690  4.85000    8.231009117162403    8.135419616893493   28.816900949056830
    8    1  4.70690  4.85000   39.015518861788550   27.574309722693126   64.637633182576181
    9    1  4.70690  4.85000   17.689616224032225   44.367121301620500   56.921000668137893
   10    1  4.70690  4.85000   22.896298805875801   15.455557871309351    5.271050100371433
   11    1  4.70690  4.85000   35.030576304300929   44.090402093054820   12.894137917583095
   12    1  4.70690  4.85000   16.219601577546317   25.583052407290612   62.449894671071583
   13    1  4.70690  4.85000   46.476451606566926   25.665964914496524   75.003855044739055
   14    1  4.70690  4.85000   31.020201412567296   43.541649927190868   22.140311682773735
   15    1  4.70690  4.85000   45.721546478698869   27.918058768775285   46.016437211575003
   16    1  4.70690  4.85000    9.633512453590065    3.469079296750285   65.088204287992397
   17    1  4.70690  4.85000   13.533121039547575   13.748734141173768   60.771081801370251
   18    1  4.70690  4.85000   17.777721975701915   35.983430585470138   75.634594721303714
   19    1  4.70690  4.85000   40.907152176711016   16.461681633226075   31.630775158279810
   20    1  4.70690  4.85000   28.919741196601684   14.455387669014142   33.503108507739427
   21    1  4.70690  4.85000   16.614655383238770   42.890057290941179   69.607822582165397
   22    1  4.70690  4.85000    9.368403224168750    4.892070168025707   54.245828240137357
   23    1  4.70690  4.85000   35.349158880725525   18.608112963604952   48.211931671773861
   24    1  4.70690  4.85000   42.781869060227820   18.301737111717806   85.566794958302722
   25    1  4.70690  4.85000   38.128086572411981   26.991106516859308   24.005412901357506
   26    1  4.70690  4.85000    6.164814594955290   27.361880946597086   46.788677087040639
   27    1  4.70690  4.85000   34.768897098429036   29.344447202072153   36.866192630370733
   28    1  4.70690  4.85000   35.231078896337607   23.517407310474347   44.149268766332760
   29    1  4.70690  4.85000   20.709197594550307   40.166745673971576   18.007570526744615
   30    1  4.70690  4.85000   40.405349130627535   16.333096294938624   65.499126096631656
   31    1  4.70690  4.85000   44.864746635870304   37.691185231594631   95.251470925929425
   32    1  4.70690  4.85000   20.475547871539504   19.216444594133744   67.069947092245073
   33    1  4.70690  4.85000   35.228093213452986   36.729007427916642   52.370649674851734
   34    1  4.70690  4.85000   21.006493363345971   21.394182469062788    6.903427119667853
   35    1  4.60345  4.85000    9.720933325802079    6.039016470515924   75.987017262515437
   36    1  4.60345  4.85000   46.654453428488104   19.510209317676953   47.468874879344966
   37    1  4.60345  4.85000    7.960502773530377   18.615265069042831   87.092393654322862
   38    1  4.60345  4.85000   33.435159535397439   33.747654751988485   89.631590212896043
   39    1  4.60345  4.85000   42.591507471380943   26.406029963606283   58.634083981878035
   40    1  4.60345  4.85000   31.738235367269123   40.197603062482976   41.180794443802540
   41    1  4.60345  4.85000    4.349685889947724   16.189329333014509   22.395954201150818
   42    1  4.60345  4.85000   34.141020731707336    3.648412904185026   35.313966364528220
   43    1  4.60345  4.85000   37.568161516643237   46.553122995654469   17.503514441832344
   44    1  4.60345  4.85000   33.360582228412092    6.149105483300298   26.587669111994405
   45    1  4.60345  4.85000   27.134544645878616   11.154650103093058    4.617497325456764
   46    1  4.60345  4.85000   28.581369309246082    7.370163110962124   12.609240716374440
   47    1  4.60345  4.85000    7.491947014690076    7.197324231857906   61.077485868147903
   48    1  4.60345  4.85000   43.907938479667010    8.262686680689031   71.026174088436250
   49    1  4.60345  4.85000   23.651741503147221   33.384751333280484   12.784267827883834
   50    1  4.60345  4.85000   25.554014726781343   15.178708972912634   72.098630385405400
   51    1  4.60345  4.85000    3.977638373309972   41.448849684517143   54.397282069895240
   52    1  4.60345  4.85000   17.576725480426962   45.595195503836280   95.765592579266780
   53    1  4.60345  4.85000    6.580656339709417   23.152230067299271   70.691031318413096
   54    1  4.60345  4.85000   18.339634258591946   26.723163073455307   14.197330887924693
   55    1  4.60345  4.85000   34.173570399483651    2.924014539520801   87.361633829793291
   56    1  4.60345  4.85000   39.258134897154150   42.140678941983928   94.600573111907579
   57    1  4.60345  4.85000   41.225196551149118   36.086654637349980   46.268339876054021
   58    1  4.60345  4.85000   35.713941623310376   19.230743518845991   35.535454767802676
   59    1  4.60345  4.85000    2.899623770722158    2.545332469911983   38.735994133444080
   60    1  4.60345  4.85000   19.071799614551214   38.713093163792216    5.714145265056731
   61    1  4.60345  4.85000   19.495595234128096   31.452034357272343   67.571890240282457
   62    1  4.60345  4.85000   17.859714450262395   15.578562338669517   24.516575681770853
   63    1  4.60345  4.85000   23.689331219562025    6.235894744945943   66.020451676460539
   64    1  4.60345  4.85000    9.806278285774551   23.486472326201543   81.823613736575297
   65    1  4.60345  4.85000   25.276348637470718   27.014790848858066   66.709675906211942
   66    1  4.60345  4.85000   45.326686474682035   28.060764462599984   28.168879784498525
   67    1  4.60345  4.85000   13.286109248636784    2.729950943276538   92.584986444062537
   68    1  4.60345  4.85000   28.484626088098722   41.464801351559977   10.072616424426514
   69    1  4.60345  4.85000   11.152083340689551    7.036509142668554   14.833337622784278
   70    1  4.60345  4.85000   29.298569216144717    5.944452703488968   91.561903051720890
   71    1  4.60345  4.85000   44.473237286374832   35.628031803346758   66.755330866547752
   72    1  4.60345  4.85000   42.197793275442955   46.930025364636364   19.623374460055850
   73    1  4.60345  4.85000   27.935939692186800    4.650264305640349    6.523473537068572
   74    1  4.60345  4.85000   11.774141157001026   14.585110238400102   34.040676508938269
   75    1  4.60345  4.85000   41.347475627635745   19.130356295202223   72.385556175948849
   76    1  4.60345  4.85000    6.955873348841851   15.006002696432503   16.231552126061541
   77    1  4.60345  4.85000   13.823636705790683    8.174572502165461   77.257934258418345
   78    1  4.60345  4.85000   25.014219507110536   14.434927177917597   25.163866308129894
   79    1  4.60345  4.85000   35.148108524159127    3.520957548047004   30.176035406610485
   80    1  4.60345  4.85000   24.390689097675246   14.521665297620512   63.111991186872011
   81    1  4.60345  4.85000   35.749143912426987    3.242842532782543   45.957462193450155
   82    1  4.60345  4.85000    8.940745511022712   13.497775093585869   10.963875319214228
   83    1  4.60345  4.85000   10.894761252200908   33.562507839491609   14.501077080422746
   84    1  4.60345  4.85000   33.016002081128484   25.332042746253141   84.889622841814358
   85    1  4.60345  4.85000   10.051209305117936   14.761860485286679   51.539746352462352
   86    1  4.60345  4.85000   10.361803296047466   14.423703792531242   82.350392112972585
   87    1  4.60345  4.85000   13.497506116176449   12.446580950409572   65.684499548138675
   88    1  4.60345  4.85000   42.271171383689740   37.171145532698070   57.593158465129846
   89    1  4.60345  4.85000   10.199801675869683   29.476868374863436   38.661349214105876
   90    1  4.60345  4.85000   17.173243216566622   21.310184311998615   93.783553158838117
   91    1  4.60345  4.85000   22.321979508899595   24.508709053563450   15.221883064554515
   92    1  4.60345  4.85000   39.076352723968611   14.500010501292085   82.533472583715763
   93    1  4.60345  4.85000   44.234184448341310   44.166390176809010   69.222226695167492
   94    1  4.60345  4.85000    6.896743214337572   10.623795451621028   78.105913268194001
   95    1  4.60345  4.85000   39.376742426371585   31.575375111470500   14.902617687812029
   96    1  4.60345  4.85000   46.012576096053053    9.296311253181992   56.064014905620972
   97    1  4.60345  4.85000   38.137344976968087   36.576231412130142   41.092233281129381
   98    1  4.60345  4.85000   13.738978575979278   36.224563218847564   45.643286842811058
   99    1  4.60345  4.85000   13.838513220888380   30.163422276318581   86.908844678456603
  100    1  4.60345  4.85000   15.897859776078906    6.036242453303649   49.877712905975500
  101    1  4.60345  4.85000   45.367443015741969   20.853410514913850   63.726608426359377
  102    1  4.60345  4.85000   15.306123144481727   14.293421790704397   55.443650132182896
  103    1  4.60345  4.85000   30.387817937498234   36.869993080925546   94.173131330839681
  104    1  4.60345  4.85000   17.962357358516222   25.185238671445209   57.826405089059385
  105    1  4.60345  4.85000    6.926060720007056   22.294571697701237   17.598268229930309
  106    1  4.60345  4.85000    6.588244488631431   33.031374213011929   80.988391936196336
  107    1  4.60345  4.85000   41.006224163841345   21.765340186230524   61.297337405458741
  108    1  4.60345  4.85000   31.197175280689354   41.779577408826242   51.963898436439692
  109    1  4.60345  4.85000   44.843365871994607    7.116018476425850   35.010232607486529
  110    1  4.60345  4.85000   21.102418645908532    5.636349957965249   95.751283044356299
  111    1  4.60345  4.85000   36.641945413914740   34.047956851369868   95.271476296120596
  112    1  4.60345  4.85000   20.403179094363345   19.673322718888965   75.427738203565767
  113    1  4.60345  4.85000   14.770794753109538    3.139392724590596   32.497462651354716
  114    1  4.60345  4.85000   17.945562227936552    9.485838422781560    3.920865457768042
  115    1  4.60345  4.85000   16.677372122075514   21.489728098807074   81.581734826225784
  116    1  4.60345  4.85000   23.834704405750880   17.202909709151431   92.468180156442770
  117    1  4.60345  4.85000   21.422090331380410   16.024659303503768   40.434992259741655
  118    1  4.60345  4.85000   30.756095475609936    3.385582373076621   54.826841822842511
  119    1  4.60345  4.85000   15.976748938551328   31.182624570114061   27.294229750713320
  120    1  4.60345  4.85000   19.619366163174920   42.815235003792353   27.534371352696876
  121    1  4.60345  4.85000   10.206560609453627   34.374460792058429   71.105859397171372
  122    1  4.60345  4.85000   18.037859610579787   32.803066199003915   82.158709226532693
  123    1  4.60345  4.85000   30.034641832823446    8.639802315902529   54.883539322586728
  124    1  4.60345  4.85000   38.174641980444072   42.628986609875106   42.649988557719666
  125    1  4.60345  4.85000    6.081344478557960   17.878011092360101   93.658511193789181
  126    1  4.60345  4.85000   33.854971398662038   22.873529316948233   33.291254407817014
  127    1  4.60345  4.85000   41.228038177969708   30.199820039595526   93.189742183985075
  128    1  4.60345  4.85000   47.634161937307780   46.073324987784190   33.673957096472414
  129    1  4.60345  4.85000   15.315480213533807   45.636856409296875   75.746620165871917
  130    1  4.60345  4.85000   36.970552940108888   25.402477179558321   55.040535680783101
  131    1  4.60345  4.85000   27.383245943596076   24.790098214010825   47.059416793265349
  132    1  4.60345  4.85000   15.705997355610979   16.382071299535216   45.013708838836536
  133    1  4.60345  4.85000    5.058265605405672   40.018510054968949   87.694574945984982
  134    1  4.60345  4.85000   25.929876545455546   32.311775029650775   72.189705075088241
  135    1  4.60345  4.85000   39.457758621718291   37.196406754267180   93.142148029745826
  136    1  4.60345  4.85000   33.516728128811835   14.163409480286457   94.689936663077134
  137    1  4.60345  4.85000    6.826322921027189   47.521975260187538   51.993327150238038
  138    1  4.60345  4.85000   39.035248627056973   20.238168384145457   78.904005208287188
  139    1  4.60345  4.85000   16.264442287151798   24.783022917628347   24.177303144924291
  140    1  4.60345  4.85000   30.907908748734407   19.990953334591499   30.222582335997515
  141    1  4.60345  4.85000   31.896240455768897   40.148010420118375   73.138530953824315
  142    1  4.60345  4.85000   23.759889313398272   41.785369924009316   46.137057099617820
  143    1  4.60345  4.85000   44.694094654610431    5.172008880880059   92.633273607937042
  144    1  4.60345  4.85000    5.746321253764201    8.026243271282542   65.496740780217621
  145    1  4.60345  4.85000   11.169782031431367   38.410888777249077   50.491415922430427
  146    1  4.60345  4.85000   38.788561993478481   38.647473171183833   68.886968541137222
  147    1  4.60345  4.85000   44.815496042988372   19.219933899761021   34.600679313315503
  148    1  4.60345  4.85000    9.294694886493303   16.927585600672767   44.489464861566141
  149    1  4.60345  4.85000   22.432944039112034    3.287843825928817   78.283213140612332
  150    1  4.60345  4.85000   20.328789980258314   36.683014176376965   91.947832159588870
  151    1  4.60345  4.85000   27.112172857943019    9.034129861577908   23.016557669265875
  152    1  4.60345  4.85000   29.224883380238072   38.655933650427826   64.490523223324601
  153    1  4.60345  4.85000   41.504894950733025   23.639736791609081   50.031534720055873
  154    1  4.60345  4.85000   17.767697414248744   17.670407733829723   58.583131876568515
  155    1  4.60345  4.85000   24.225994103095712   33.658150199164595   59.104311134943252
  156    1  4.60345  4.85000   14.219657774807359   18.070400062661594   38.111868389034676
  157    1  4.60345  4.85000   45.911224953064227   23.500812435801940   19.664859117385397
  158    1  4.60345  4.85000   32.252660168650230   28.484630529732360   65.469875881387765
  159    1  4.60345  4.85000    6.428493732798452    6.638029820074019   92.578365103573617
  160    1  4.60345  4.85000    7.301341091411332   28.647739481647246   28.267508654266194
  161    1  4.60345  4.85000   16.041023384532746    4.014873866309258   65.568861168498515
  162    1  4.50000  4.85000   45.669862319708294   43.753769599024828   26.465103079925019
  163    1  4.50000  4.85000   36.860177466003883   21.304106269924347   57.148886681927699
  164    1  4.50000  4.85000   32.603382571575693   15.784396521168565   82.426922497979163
  165    1  4.50000  4.85000   45.955237874819197    9.661242121769849   23.046858676049411
  166    1  4.50000  4.85000    8.192556062309464   15.485070100413081   74.874805103281389
  167    1  4.50000  4.85000   33.613311667062845   38.511555258578788   21.121854657619497
  168    1  4.50000  4.85000    3.366422508635657   47.496775585273447   96.603837025081944
  169    1  4.50000  4.85000   27.152239910338892   30.143467676470902   11.957276267426968
  170    1  4.50000  4.85000   26.513054147320805    2.708757382442573   29.731791024689315
  171    1  4.50000  4.85000    6.740592846150347   33.888857832691670   46.491325260580822
  172    1  4.50000  4.85000   20.748474964166455   10.812948830474719   34.085294009351145
  173    1  4.50000  4.85000    8.775771784537728   42.649339614816995   42.102029302907688
  174    1  4.50000  4.85000   30.802101246970270   36.813780364073622   58.689756724583233
  175    1  4.50000  4.85000    2.531496710326074   34.462657725229384   37.745385483263028
  176    1  4.50000  4.85000   36.985707777874694    3.029937872076522   69.793203609842578
  177    1  4.50000  4.85000   25.700821377906717   44.981519397911697   50.219956642600522
  178    1  4.50000  4.85000   32.232972206480312   35.379432912802699    8.911991359930843
  179    1  4.50000  4.85000   35.837846954453475   13.467815869014840   40.562574006035831
  180    1  4.50000  4.85000   43.404219542971347   37.432333635449311   29.977191224033213
  181    1  4.50000  4.85000   27.903512883617548   13.199565565566093   45.293474314562559
  182    1  4.50000  4.85000   18.832679130265294   44.199815669698360   37.053028176775172
  183    1  4.50000  4.85000   16.516869277818625   23.384605855703139   39.304553306936391
  184    1  4.50000  4.85000    9.786613775748863    4.234996463568473   45.167140476362945
  185    1  4.50000  4.85000   29.302613051820519   28.963759547266346   77.202397634855316
  186    1  4.50000  4.85000   42.633637720746748    6.939480471541718   46.277964991799031
  187    1  4.50000  4.85000   28.606156320202313   19.803082648062599   74.986369416749383
  188    1  4.50000  4.85000   47.568777204010125    7.303162290919709   19.213710520063866
  189    1  4.50000  4.85000   28.075138846334401   39.097540051924511   78.342672344245315
  190    1  4.50000  4.85000   39.390748969061725    6.453661802642581   85.600604936584745
  191    1  4.50000  4.85000    9.620610246858554   17.755850645616910   28.435860831506702
  192    1  4.50000  4.85000    6.370769585987404   23.702657488394859   60.958701672020311
  193    1  4.50000  4.85000   11.741402513047806   24.664837470782285    6.593392115300498
  194    1  4.50000  4.85000   29.701981892574192   29.013550799068270   60.640430734343767
  195    1  4.50000  4.85000   11.620226867682849   26.365654242122446   58.746342748487606
  196    1  4.50000  4.85000   15.794675780867021   44.935002486878005   15.419644283346262
  197    1  4.50000  4.85000   10.629265852413230    3.617159888429583   71.959492424046104
  198    1  4.50000  4.85000   21.071241821526833   40.625825723206390   39.133317534550436
  199    1  4.50000  4.85000   31.754863115926774   27.307362016400951   52.719619540267800
  200    1  4.50000  4.85000   11.216106913036690   46.200579363726078   47.789449132102249
  201    1  4.50000  4.85000    5.644702692343035   34.855095734958304   16.865745097392541
  202    1  4.50000  4.85000   45.819794482309156    7.815971653432218   80.169805711100750
  203    1  4.50000  4.85000   17.213258045870766   41.326096589160649   11.493417336409095
  204    1  4.50000  4.85000    4.949896687465988   29.066952520149766   93.164666314043117
  205    1  4.50000  4.85000   20.033337008968871   36.460279038401573   56.258890412611414
  206    1  4.50000  4.85000   37.374458465993911   22.569225302197861   92.996987380900748
  207    1  4.50000  4.85000   45.435847819749384   10.616521767139105   97.585019693162153
  208    1  4.50000  4.85000    6.038139992548947   27.908706866029885   55.996848271374382
  209    1  4.50000  4.85000   33.743364306123745   21.559769146011387    3.494897403858631
  210    1  4.50000  4.85000    7.217767860332089   19.181565889080165   63.386061513756538
  211    1  4.50000  4.85000   32.230632317530670   45.780614473604984   68.248548775461401
  212    1  4.50000  4.85000   39.127059833789176   44.590967414768798   77.259640179142750
  213    1  4.50000  4.85000   26.768072525974478   12.916933059611853   91.117265495988875
  214    1  4.50000  4.85000   38.553304581320361   15.504132513842498   87.562711263245262
  215    1  4.50000  4.85000   44.453355481401047    9.578459714886694   61.013084074677451
  216    1  4.50000  4.85000   24.461182685317546   29.426338075042594   56.758072020722985
  217    1  4.50000  4.85000    5.146774766885162   43.980110958429769    2.631301416327980
  218    1  4.50000  4.85000    7.107736632829292   19.128475303838972   34.193316676355110
  219    1  4.50000  4.85000   42.704814124133655   40.948975302167717    5.437098907771217
  220    1  4.50000  4.85000    4.478882820105680   27.744028811990251   71.494825517406980
  221    1  4.50000  4.85000   20.622667636737166   41.701845797229375   59.703864008871584
  222    1  4.50000  4.85000   22.684973316678967   15.637231932617397   51.226837140877421
  223    1  4.50000  4.85000   22.892614294848947    5.321155850197087   28.551442669121478
  224    1  4.50000  4.85000   38.552316835293020    6.851717859509830   52.703743405678239
  225    1  4.50000  4.85000   27.868461866291664   43.977325129888136   67.148408607207173
  226    1  4.50000  4.85000   24.407509303386956   37.808995037600532   95.114989049553046
  227    1  4.50000  4.85000   28.647200107493010   15.345856750908373   10.947494777829709
  228    1  4.50000  4.85000   43.076362886625930   33.147502474778705   61.763257536095729
  229    1  4.50000  4.85000   39.329176299800324   33.878305464876050   22.059498238028912
  230    1  4.50000  4.85000   22.406970715674795   15.341051413680241   86.118433163752371
  231    1  4.50000  4.85000   46.387414936855770   22.349638357656254   83.569283956435299
  232    1  4.50000  4.85000   44.397723198272985   25.624354058321856   97.114655048586243
  233    1  4.50000  4.85000   40.079743365944289   11.786945113875811   90.644642712625171
  234    1  4.50000  4.85000   42.057128524504897   46.774680109625514   13.733479910994527
  235    1  4.50000  4.85000   35.938602937708943   28.910373036830894   93.542831021716339
  236    1  4.50000  4.85000   13.817468821864503   47.555743807142584    3.790656753754680
  237    1  4.50000  4.85000   45.899498074203223   27.798271640117672   22.239627844363696
  238    1  4.50000  4.85000   38.959601748693707    2.583828852248546    3.981467638749421
  239    1  4.50000  4.85000   41.803346495676706   32.244858178286307   57.195151428249950
  240    1  4.50000  4.85000   33.624018146886399   41.845315879902323   78.988949224639896
  241    1  4.50000  4.85000   37.067385617963311   13.326284327822362   19.147882080761335
  242    1  4.50000  4.85000   41.873512625926345   37.976557784473741   37.350491571424961
  243    1  4.50000  4.85000   45.587115654190079   29.393972726419289    3.776338398971899
  244    1  4.50000  4.85000   22.182161574804859   31.749410509938379   19.886544009395504
  245    1  4.50000  4.85000    3.963943659946738    3.134327438713126   51.605078331612120
  246    1  4.50000  4.85000   42.935019412188467   19.871939160678235    2.488144034873561
  247    1  4.50000  4.85000   25.684733228260320   19.094419188957144   36.726567973564556
  248    1  4.50000  4.85000   19.472862192434455    2.718502198455155   37.728275906587747
  249    1  4.50000  4.85000   39.455339084721999   41.483929637840973   35.106827592453001
  250    1  4.50000  4.85000   20.428227672383134   46.143815024811389   80.402718243940512
  251    1  4.50000  4.85000   25.183935382913379   27.082766962687707    5.125814791900872
  252    1  4.50000  4.85000   17.409104373893665   11.831708809250131   90.218778016567128
  253    1  4.50000  4.85000   34.214236908618972   21.191920540655438    8.853321746446159
  254    1  4.50000  4.85000   41.844840770444812   10.368713927066239    9.885131953686271
  255    1  4.50000  4.85000   41.757331166351285    7.154279772925987   26.735528171577585
  256    1  4.50000  4.85000   27.152856856919492    7.327188514537116   42.774590702877553
  257    1  4.50000  4.85000   43.794947010902519   19.968506674130872   15.978986358588967
  258    1  4.50000  4.85000    7.343688550471295   40.712698442451490   11.274290919286447
  259    1  4.50000  4.85000   28.980432420059994   11.898165859322752   38.101997735059783
  260    1  4.50000  4.85000   18.314133874694271   27.238640862591762   48.726833541028675
  261    1  4.50000  4.85000    2.693367219965735   33.901940925835120   91.156277947959680
  262    1  4.50000  4.85000   38.872605416159843   33.375945191918632   80.835577765277435
  263    1  4.50000  4.85000   21.565213836314435   23.760867936129998   81.442404704880119
  264    1  4.50000  4.85000   21.554819098981874   10.759324625325700   71.806189297842934
  265    1  4.50000  4.85000   45.249801031929827   14.665808383190997   39.748254759944246
  266    1  4.50000  4.85000   24.039727381795309   47.419297171654911   68.988685965148932
  267    1  4.50000  4.85000   20.761352467608493   22.982194097502102   61.353245400553995
  268    1  4.50000  4.85000   17.873853543755938   17.486936826323202    3.392911754041483
  269    1  4.50000  4.85000   20.837296319404434   37.235503288176595   10.697178393450660
  270    1  4.50000  4.85000   41.448199918198796   26.744184456928970   17.333299623533904
  271    1  4.50000  4.85000    3.210550685634272   23.573500711368098    3.344896821077699
  272    1  4.50000  4.85000   41.542282104159909    5.798557956801959   62.356356538683691
  273    1  4.50000  4.85000   47.343599103952691   45.271158372017098    6.517034509643699
  274    1  4.50000  4.85000    9.312668097113566    8.392102656276558   36.899976448325475
  275    1  4.50000  4.85000    2.505311666342644   35.068143387744449   82.225116129996110
  276    1  4.50000  4.85000    5.615633368170516   11.136965624257929   22.020041777281708
  277    1  4.50000  4.85000   17.342533357286307   14.373099833397566   16.534457109532813
  278    1  4.50000  4.85000   35.479556490760942   26.015076771029307   29.689508165113949
  279    1  4.50000  4.85000   19.903112640274912   22.094154637690210   34.647111124655012
  280    1  4.50000  4.85000   23.497998584290286   43.137207669590907   15.459325036636436
  281    1  4.50000  4.85000   32.708982499013047    3.941581609271549   66.423662149646177
  282    1  4.50000  4.85000   19.469795905910761   16.495050594552783   95.014808377193930
  283    1  4.50000  4.85000   11.804208494514306   10.057415173494686   88.104346017826700
  284    1  4.50000  4.85000    7.972593471265566   19.021475404029577   38.991227946758919
  285    1  4.50000  4.85000   24.206171566504000   22.704496310360842   89.697576348072658
  286    1  4.50000  4.85000   45.116732237618891   32.594199446327892   47.320687983216864
  287    1  4.50000  4.85000   27.960996024027335   44.535232079660958   59.966148048337395
  288    1  4.50000  4.85000   29.004777359173254   19.360806549777088    7.513786650376147
  289    1  4.50000  4.85000    6.413034927176636   46.944999446476928   71.624435658253645
  290    1  4.50000  4.85000    6.522151747513092   45.657303319802359   26.459169858732505
  291    1  4.50000  4.85000    8.579073648687620    9.128139409448547    6.430003282418677
  292    1  4.50000  4.85000   38.080110016364685   29.373477773219253   18.752646413786252
  293    1  4.50000  4.85000   42.048766922174423   34.985980107192454   10.820902594149331
  294    1  4.50000  4.85000    4.835850892241213   27.809609816724883   23.273511884032867
  295    1  4.50000  4.85000   25.323949192971295   18.966738382958660   69.367095635316574
  296    1  4.50000  4.85000   28.286149245071901   20.531895905336917   14.314781925294414
  297    1  4.50000  4.85000   44.158059259169988    2.347627497029316   21.008186623698204
  298    1  4.50000  4.85000   45.650439924028419   30.178196682405058   72.605742494753017
  299    1  4.50000  4.85000   42.702418949851285   41.819611469503677   45.611503954387437
  300    1  4.50000  4.85000    3.166834375046381   37.071155780749351   33.580335147079069
  301    1  4.50000  4.85000   14.154293634202777   18.152560072086573   22.635290787379908
  302    1  4.50000  4.85000    9.990465003349591   36.442464896695924   54.809526557175808
  303    1  4.50000  4.85000    8.231996274753989    5.976358559349807   19.922604739723297
  304    1  4.50000  4.85000   36.982776664985003   11.926726532499471   46.909768666061652
  305    1  4.50000  4.85000   18.860389297322058   18.948081935174034   86.503839127632205
  306    1  4.50000  4.85000    6.068623343653737   37.202649197019980   74.254287183363701
  307    1  4.50000  4.85000   32.736007473138507   46.192243360810622   95.284259679315227
  308    1  4.50000  4.85000   23.709039684242814   42.023064499176328   70.598174085340830
  309    1  4.50000  4.85000    4.239821455480403   23.686919848987991   29.668216791983486
  310    1  4.50000  4.85000   38.978210062605662   31.202185446554012   47.082208221822448
  311    1  4.50000  4.85000   38.253108113373521   13.258522037316812   28.119378628267366
  312    1  4.50000  4.85000   37.038330303243555   41.300876737400245   61.000906492613190
  313    1  4.50000  4.85000   12.717048767978566   39.236669237696162   78.258534192051698
  314    1  4.50000  4.85000   17.627919588716189   40.062502000471980   47.281086357644121
  315    1  4.50000  4.85000   12.774279955091144   42.201017426173607   64.366287577018767
  316    1  4.50000  4.85000   15.034646596881018   42.447171306213150   50.989137267693167
  317    1  4.50000  4.85000   21.783474330360409   25.821140199229511   70.397795029249721
  318    1  4.50000  4.85000   31.578957616654904   45.700810000251693    7.202478198979033
  319    1  4.50000  4.85000    9.225979245523483    3.104360459817277    9.179680716022835
  320    1  4.50000  4.85000   32.371297757656151   19.121928185463656   41.610554284252864
  321    1  4.50000  4.85000   30.980616931075780   26.649429242997158   11.699649861449785
  322    1  4.50000  4.85000   40.355599466761291   47.223841058790477   58.381329837136434
  323    1  4.50000  4.85000   27.202945237911877   36.686253597243464   17.257677314733634