LIGGGHTS (Version LIGGGHTS-PUBLIC 3.8.0, compiled 2018-08-29-09:25:30 by howietu, git commit 28301df8853491784b1d8b90533ea89b8c6af1e8)
variable    skfstl equal 1/5000

variable    x1y1 equal -1*${skfstl}*2500
variable    x1y1 equal -1*0.0002*2500
variable    x2y2 equal  1*${skfstl}*2500
variable    x2y2 equal  1*0.0002*2500
variable    z1 equal   -1*${skfstl}*2500
variable    z1 equal   -1*0.0002*2500
variable    z2 equal    1*${skfstl}*2500
variable    z2 equal    1*0.0002*2500

#variable v equal 0.008 #lifting speed
variable    a0          equal 0.01
variable    b0          equal 0.04
variable    c0          equal 0.01
variable    blockiness1 equal 2
variable    blockiness2 equal 5

echo both

atom_style	superquadric
atom_modify	map array

boundary	f f f
newton		off
communicate	single vel yes
units		si

region		reg block ${x1y1} ${x2y2} ${x1y1} ${x2y2} ${z1} ${z2}  units box
region		reg block -0.5 ${x2y2} ${x1y1} ${x2y2} ${z1} ${z2}  units box
region		reg block -0.5 0.5 ${x1y1} ${x2y2} ${z1} ${z2}  units box
region		reg block -0.5 0.5 -0.5 ${x2y2} ${z1} ${z2}  units box
region		reg block -0.5 0.5 -0.5 0.5 ${z1} ${z2}  units box
region		reg block -0.5 0.5 -0.5 0.5 -0.5 ${z2}  units box
region		reg block -0.5 0.5 -0.5 0.5 -0.5 0.5  units box
create_box	2 reg
Created orthogonal box = (-0.5 -0.5 -0.5) to (0.5 0.5 0.5)
  4 by 4 by 5 MPI processor grid

neighbor	0.002 bin
neigh_modify	delay 0

variable dt equal 1e-5
variable nStepsRun    equal 12/${dt}
variable nStepsRun    equal 12/1e-05
variable writeOutEvery equal 0.2/${dt}
variable writeOutEvery equal 0.2/1e-05
variable thermofreq   equal 0.01/${dt}
variable thermofreq   equal 0.01/1e-05

variable cf_ww equal 1.0
variable cf_pw equal 0.5
variable cf_pp equal 0.5

variable cof_ww equal 0.2
variable cof_pw equal 0.2
variable cof_pp equal 0.2

variable corf_ww equal 0.
variable corf_pw equal 0.2
variable corf_pp equal 0.2

variable Yw equal 1e+7
variable Yp equal 1e+7

#Material properties required for new pair styles
fix 		m1 all property/global youngsModulus peratomtype ${Yw} ${Yp}
fix 		m1 all property/global youngsModulus peratomtype 10000000 ${Yp}
fix 		m1 all property/global youngsModulus peratomtype 10000000 10000000
fix 		m2 all property/global poissonsRatio peratomtype 0.3 0.3
fix 		m3 all property/global coefficientRestitution peratomtypepair 2 ${cf_ww} ${cf_pw} ${cf_pw} ${cf_pp}
fix 		m3 all property/global coefficientRestitution peratomtypepair 2 1 ${cf_pw} ${cf_pw} ${cf_pp}
fix 		m3 all property/global coefficientRestitution peratomtypepair 2 1 0.5 ${cf_pw} ${cf_pp}
fix 		m3 all property/global coefficientRestitution peratomtypepair 2 1 0.5 0.5 ${cf_pp}
fix 		m3 all property/global coefficientRestitution peratomtypepair 2 1 0.5 0.5 0.5
fix             m4 all property/global coefficientFriction peratomtypepair 2 ${cof_ww} ${cof_pw} ${cof_pw} ${cof_pp}
fix             m4 all property/global coefficientFriction peratomtypepair 2 0.2 ${cof_pw} ${cof_pw} ${cof_pp}
fix             m4 all property/global coefficientFriction peratomtypepair 2 0.2 0.2 ${cof_pw} ${cof_pp}
fix             m4 all property/global coefficientFriction peratomtypepair 2 0.2 0.2 0.2 ${cof_pp}
fix             m4 all property/global coefficientFriction peratomtypepair 2 0.2 0.2 0.2 0.2
fix             m5 all property/global coefficientRollingFriction peratomtypepair 2 ${corf_ww} ${corf_pw} ${corf_pw} ${corf_pp}
fix             m5 all property/global coefficientRollingFriction peratomtypepair 2 0 ${corf_pw} ${corf_pw} ${corf_pp}
fix             m5 all property/global coefficientRollingFriction peratomtypepair 2 0 0.2 ${corf_pw} ${corf_pp}
fix             m5 all property/global coefficientRollingFriction peratomtypepair 2 0 0.2 0.2 ${corf_pp}
fix             m5 all property/global coefficientRollingFriction peratomtypepair 2 0 0.2 0.2 0.2

#New pair style
pair_style gran model hertz tangential history rolling_friction epsd2 surface superquadric #Hertzian without cohesion
WARNING: 
	The contact model you specified is not located in any whitelist.
	Because of this the model will be run in an unoptimized version (increasing runtime by up to 20%).
	In order to optimize this model you have the following options:
		(i)  Run the genAutoExamplesWhitelist.sh script in your LIGGGHTS(R) source folder to automatically parse the input script
		(ii) Add the model combination by hand to your style_contact_model_user.whitelist that can be found in your LIGGGHTS(R) source folder
	If you perform one of the steps above LIGGGHTS(R) needs to be recompiled to generate the optimized code.

 (../contact_models.h:364)
pair_coeff	* *
timestep ${dt}
timestep 1e-05

variable totaltime equal step*${dt}
variable totaltime equal step*1e-05

fix Bsphere all mesh/surface file sphere.stl type 2 scale 0.0125
fix wall all wall/gran model hertz tangential history rolling_friction epsd2 surface superquadric mesh n_meshes 1 meshes Bsphere
WARNING: 
	The contact model you specified is not located in any whitelist.
	Because of this the model will be run in an unoptimized version (increasing runtime by up to 20%).
	In order to optimize this model you have the following options:
		(i)  Run the genAutoExamplesWhitelist.sh script in your LIGGGHTS(R) source folder to automatically parse the input script
		(ii) Add the model combination by hand to your style_contact_model_user.whitelist that can be found in your LIGGGHTS(R) source folder
	If you perform one of the steps above LIGGGHTS(R) needs to be recompiled to generate the optimized code.

 (../contact_models.h:364)

fix pts1 all particletemplate/superquadric 15485863 atom_type 2 density constant 2500 shape constant ${a0} ${b0} ${c0} blockiness constant ${blockiness1} ${blockiness2}
fix pts1 all particletemplate/superquadric 15485863 atom_type 2 density constant 2500 shape constant 0.01 ${b0} ${c0} blockiness constant ${blockiness1} ${blockiness2}
fix pts1 all particletemplate/superquadric 15485863 atom_type 2 density constant 2500 shape constant 0.01 0.04 ${c0} blockiness constant ${blockiness1} ${blockiness2}
fix pts1 all particletemplate/superquadric 15485863 atom_type 2 density constant 2500 shape constant 0.01 0.04 0.01 blockiness constant ${blockiness1} ${blockiness2}
fix pts1 all particletemplate/superquadric 15485863 atom_type 2 density constant 2500 shape constant 0.01 0.04 0.01 blockiness constant 2 ${blockiness2}
fix pts1 all particletemplate/superquadric 15485863 atom_type 2 density constant 2500 shape constant 0.01 0.04 0.01 blockiness constant 2 5
fix pdd1 all particledistribution/discrete 86028157 1 pts1 1

fix ins_mesh all mesh/surface/planar file ins_face.stl heal auto_remove_duplicates type 1 scale 0.0125
fix ins all insert/stream seed 86028121 distributiontemplate pdd1                 maxattempt 200 nparticles 1800 particlerate 180 overlapcheck yes all_in yes vel constant 0 0 -2.0                 insertion_face ins_mesh extrude_length 0.2

group		nve_group region reg
0 atoms in group nve_group

#apply nve integration to all particles that are inserted as single particles
fix		integr all nve/superquadric integration_scheme 1
fix		gravi all  gravity 9.81 vector 0.0 0.0 -1.0

variable time equal step*${dt}
variable time equal step*1e-05

#output settings, include total thermal energy
thermo_style	custom step atoms cpu spcpu time
thermo		${thermofreq}
thermo		1000
thermo_modify	lost ignore norm no

#insert the first particles so that dump is not empty
run		1
Setting up run at Sat Sep  1 20:31:36 2018

INFO: Particle insertion ins: 18.000000 particles every 10000 steps - particle rate 180.000000, (mass rate 9.121441e+00)
      1800 particles (mass 9.121441e+01) within 1000000 steps
Memory usage per processor = 14.3584 Mbytes
    Step    Atoms            CPU          S/CPU           Time 
       0        0              0              0              0 
INFO: Particle insertion ins: inserted 15 particle templates (mass 7.601201e-01) at step 1
 - a total of 15 particle templates (mass 7.601201e-01) inserted so far.
WARNING: Particle insertion: Less insertions than requested (../fix_insert.cpp:814)
       1       15    0.018122939      55.172936          1e-05 
Loop time of 0.019485 on 80 procs for 1 steps with 15 atoms, finish time Sat Sep  1 20:31:36 2018


Pair  time (%) = 2.67985e-06 (0.0137534)
Neigh time (%) = 7.03462e-06 (0.0361027)
Comm  time (%) = 0.000227188 (1.16596)
Outpt time (%) = 0.000685264 (3.51688)
Other time (%) = 0.0185628 (95.2673)

Nlocal:    0.1875 ave 4 max 0 min
Histogram: 76 0 0 0 0 0 0 1 0 3
Nghost:    0.7625 ave 12 max 0 min
Histogram: 72 0 0 0 2 2 2 0 0 2
Neighs:    0.225 ave 6 max 0 min
Histogram: 76 0 0 0 0 1 1 0 1 1

Total # of neighbors = 18
Ave neighs/atom = 1.2
Neighbor list builds = 1
Dangerous builds = 0
shell       mkdir post
dump		dmp all custom/vtk ${writeOutEvery} post/dump*.superq.vtk type mass x y z id vx vy vz fx fy fz omegax omegay omegaz radius shapex shapey shapez quat1 quat2 quat3 quat4 blockiness1 blockiness2 tqx tqy tqz angmomx angmomy angmomz
dump		dmp all custom/vtk 20000 post/dump*.superq.vtk type mass x y z id vx vy vz fx fy fz omegax omegay omegaz radius shapex shapey shapez quat1 quat2 quat3 quat4 blockiness1 blockiness2 tqx tqy tqz angmomx angmomy angmomz
#dump		dmp all custom ${writeOutEvery} post/rigid*.dump id type x y z quat1 quat2 quat3 quat4 vx vy vz fx fy fz blockiness1
dump_modify dmp label version_01
dump 		dumpstlSphere all stl ${writeOutEvery} post/dump_Sphere*.stl Bsphere
dump 		dumpstlSphere all stl 20000 post/dump_Sphere*.stl Bsphere

run		${nStepsRun} upto
run		1200000 upto
Setting up run at Sat Sep  1 20:31:36 2018

Memory usage per processor = 14.3623 Mbytes
    Step    Atoms            CPU          S/CPU           Time 
       1       15              0              0          1e-05 
    1000       15    0.040171975      24866.886           0.01 
    2000       15    0.079568115      25383.406           0.02 
    3000       15     0.12001136      24725.999           0.03 
    4000       15     0.16358271      22950.899           0.04 
    5000       15     0.20437484      24514.647           0.05 
    6000       15     0.24509989       24554.86           0.06 
    7000       15     0.30898023      15654.258           0.07 
    8000       15     0.35621852      21169.314           0.08 
    9000       15     0.46584502      9121.4824           0.09 
   10000       15     0.54998529      11885.575            0.1 
INFO: Particle insertion ins: inserted 16 particle templates (mass 8.107948e-01) at step 10001
 - a total of 31 particle templates (mass 1.570915e+00) inserted so far.
WARNING: Particle insertion: Less insertions than requested (../fix_insert.cpp:814)
   11000       31     0.62614076      13131.028           0.11 
   12000       31     0.67306594      21310.558           0.12 
   13000       31     0.72175331      20539.208           0.13 
   14000       31      0.7697762      20823.412           0.14 
   15000       31     0.81780435      20821.117           0.15 
   16000       31     0.86576155      20851.947           0.16 
   17000       31     0.91608205      19872.621           0.17 
   18000       31      1.0259867      9098.7663           0.18 
   19000       31      1.1064737      12424.421           0.19 
   20000       31      1.9265336      1219.4225            0.2 
INFO: Particle insertion ins: inserted 17 particle templates (mass 8.614695e-01) at step 20001
 - a total of 48 particle templates (mass 2.432384e+00) inserted so far.
WARNING: Particle insertion: Less insertions than requested (../fix_insert.cpp:814)
   21000       48      2.0566843      7683.4065           0.21 
   22000       48      2.2071179      6647.4652           0.22 
   23000       48      2.3792792      5808.5091           0.23 
   24000       48      2.5589426      5565.9651           0.24 
   25000       48      2.7706218      4724.1301           0.25 
   26000       48      2.9764431      4858.5823           0.26 
   27000       48      3.1701482      5162.4754           0.27 
   28000       48      3.3368547      5998.5811           0.28 
   29000       48      3.5367601      5002.3645           0.29 
   30000       48      3.7531112      4622.1201            0.3 
INFO: Particle insertion ins: inserted 16 particle templates (mass 8.107948e-01) at step 30001
 - a total of 64 particle templates (mass 3.243179e+00) inserted so far.
WARNING: Particle insertion: Less insertions than requested (../fix_insert.cpp:814)
   31000       64      4.0886517      2980.2623           0.31 
   32000       64      4.3872728      3348.7286           0.32 
   33000       64       4.713878      3061.7991           0.33 
   34000       64      5.2111187      2011.0981           0.34 
   35000       64      5.6170596       2463.414           0.35 
   36000       64      6.0437025      2343.8793           0.36 
   37000       64      6.5222711       2089.566           0.37 
   38000       64      6.9634698      2266.5526           0.38 
   39000       64      7.4036991      2271.5419           0.39 
   40000       64      7.9824106       1727.976            0.4 
INFO: Particle insertion ins: inserted 18 particle templates (mass 9.121441e-01) at step 40001
 - a total of 82 particle templates (mass 4.155323e+00) inserted so far.
   41000       82       8.457782       2103.618           0.41 
   42000       82      9.0158084      1792.0284           0.42 
   43000       82      9.6696509      1529.4216           0.43 
   44000       82      10.259464      1695.4504           0.44 
   45000       82      10.905125      1548.8021           0.45 
   46000       82      11.525049      1613.0998           0.46 
   47000       82      12.116794      1689.9162           0.47 
   48000       82      12.759668      1555.5149           0.48 
   49000       82      13.403931      1552.1622           0.49 
   50000       82      14.119837      1396.8312            0.5 
INFO: Particle insertion ins: inserted 17 particle templates (mass 8.614695e-01) at step 50001
 - a total of 99 particle templates (mass 5.016793e+00) inserted so far.
WARNING: Particle insertion: Less insertions than requested (../fix_insert.cpp:814)
   51000       99      14.805938      1457.5112           0.51 
   52000       99      15.453783      1543.5792           0.52 
   53000       99      16.156259      1423.5365           0.53 
   54000       99      16.978377      1216.3701           0.54 
   55000       99      17.905535       1078.565           0.55 
   56000       99      18.591143      1458.5584           0.56 
   57000       99      19.308893      1393.2437           0.57 
   58000       99      20.088249      1283.1101           0.58 
   59000       99       20.79225      1420.4522           0.59 
   60000       99      21.674121      1133.9528            0.6 
INFO: Particle insertion ins: inserted 17 particle templates (mass 8.614695e-01) at step 60001
 - a total of 116 particle templates (mass 5.878262e+00) inserted so far.
WARNING: Particle insertion: Less insertions than requested (../fix_insert.cpp:814)
   61000      116      22.542547      1151.5088           0.61 
   62000      116      23.348139      1241.3225           0.62 
   63000      116      24.279731      1073.4312           0.63 
   64000      116      25.252559      1027.9313           0.64 
   65000      116      26.145166      1120.3139           0.65 
   66000      116      27.071401      1079.6395           0.66 
   67000      116      27.987902      1091.1059           0.67 
   68000      116      28.977276      1010.7399           0.68 
   69000      116      30.013167       965.3527           0.69 
   70000      116      31.104873      915.99767            0.7 
INFO: Particle insertion ins: inserted 15 particle templates (mass 7.601201e-01) at step 70001
 - a total of 131 particle templates (mass 6.638382e+00) inserted so far.
WARNING: Particle insertion: Less insertions than requested (../fix_insert.cpp:814)
   71000      131      32.220046      896.72213           0.71 
   72000      131       33.17767      1044.2515           0.72 
   73000      131      34.285713      902.49161           0.73 
   74000      131      35.427513      875.80994           0.74 
   75000      131      36.686669      794.18281           0.75 
   76000      131      39.839737      317.15151           0.76 
   77000      131      40.916031      929.11402           0.77 
   78000      131      41.939161      977.39265           0.78 
   79000      131      43.029283      917.32841           0.79 
   80000      131      44.318552      775.63348            0.8 
INFO: Particle insertion ins: inserted 17 particle templates (mass 8.614695e-01) at step 80001
 - a total of 148 particle templates (mass 7.499852e+00) inserted so far.
WARNING: Particle insertion: Less insertions than requested (../fix_insert.cpp:814)
   81000      148      45.478977      861.75329           0.81 
   82000      148      46.737058      794.86126           0.82 
   83000      148      47.966913      813.10412           0.83 
   84000      148      49.287145      757.44244           0.84 
   85000      148      50.686543      714.59286           0.85 
   86000      148      52.000887      760.83598           0.86 
   87000      148      53.138513      879.02333           0.87 
   88000      148      54.320253      846.21011           0.88 
   89000      148      57.275886      338.33698           0.89 
   90000      148       58.65849      723.27286            0.9 
INFO: Particle insertion ins: inserted 16 particle templates (mass 8.107948e-01) at step 90001
 - a total of 164 particle templates (mass 8.310647e+00) inserted so far.
WARNING: Particle insertion: Less insertions than requested (../fix_insert.cpp:814)
   91000      164       60.10213      692.69349           0.91 
   92000      164      61.724092      616.53711           0.92 
   93000      164      63.109889      721.60691           0.93 
   94000      164      64.613184      665.20505           0.94 
   95000      164      66.148375      651.38504           0.95 
   96000      164      67.741448      627.71767           0.96 
   97000      164       69.25237      661.84722           0.97 
   98000      164      70.782963      653.34185           0.98 
   99000      164      72.436821      604.64695           0.99 
  100000      164      74.306869      534.74543              1 
INFO: Particle insertion ins: inserted 17 particle templates (mass 8.614695e-01) at step 100001
 - a total of 181 particle templates (mass 9.172116e+00) inserted so far.
WARNING: Particle insertion: Less insertions than requested (../fix_insert.cpp:814)
  101000      181      76.047548      574.48858           1.01 
  102000      181      77.615208      637.89328           1.02 
  103000      181      79.426875        551.978           1.03 
  104000      181      81.170122      573.64204           1.04 
  105000      181      82.913387      573.63617           1.05 
  106000      181      84.512371      625.39725           1.06 
  107000      181      86.156546      608.20767           1.07 
  108000      181      87.843588      592.75362           1.08 
  109000      181       89.57145       578.7498           1.09 
  110000      181      91.480387      523.85186            1.1 
INFO: Particle insertion ins: inserted 16 particle templates (mass 8.107948e-01) at step 110001
 - a total of 197 particle templates (mass 9.982911e+00) inserted so far.
WARNING: Particle insertion: Less insertions than requested (../fix_insert.cpp:814)
  111000      197      93.471959      502.11585           1.11 
  112000      197      95.414322      514.83692           1.12 
  113000      197      97.351641      516.17716           1.13 
  114000      197      99.291145      515.59562           1.14 
  115000      197      101.23345      514.85251           1.15 
  116000      197      103.09518       537.1343           1.16 
  117000      197      105.01296      521.43569           1.17 
  118000      197      106.94666      517.14384           1.18 
  119000      197      108.84298      527.33742           1.19 
  120000      197      110.91388      482.88197            1.2 
INFO: Particle insertion ins: inserted 16 particle templates (mass 8.107948e-01) at step 120001
 - a total of 213 particle templates (mass 1.079371e+01) inserted so far.
WARNING: Particle insertion: Less insertions than requested (../fix_insert.cpp:814)
  121000      213      112.87363      510.26996           1.21 
  122000      213      114.87993      498.42792           1.22 
  123000      213      116.80905      518.37265           1.23 
  124000      213      118.89183       480.1269           1.24 
  125000      213      120.97835      479.26705           1.25 
  126000      213      122.87193       528.1002           1.26 
  127000      213      124.80472      517.38771           1.27 
  128000      213      126.84263      490.69934           1.28 
  129000      213      128.98527       466.7124           1.29 
  130000      213      131.16014      459.79715            1.3 
INFO: Particle insertion ins: inserted 17 particle templates (mass 8.614695e-01) at step 130001
 - a total of 230 particle templates (mass 1.165518e+01) inserted so far.
WARNING: Particle insertion: Less insertions than requested (../fix_insert.cpp:814)
  131000      230      133.34891      456.87877           1.31 
  132000      230       135.4983       465.2471           1.32 
  133000      230      137.59775      476.31516           1.33 
  134000      230      139.90065      434.23562           1.34 
  135000      230      142.13663      447.23133           1.35 
  136000      230       144.2192      480.17734           1.36 
  137000      230      146.28037      485.15909           1.37 
  138000      230      148.42618      466.02584           1.38 
  139000      230       150.6321      453.32429           1.39 
  140000      230      152.98883      424.31836            1.4 
INFO: Particle insertion ins: inserted 16 particle templates (mass 8.107948e-01) at step 140001
 - a total of 246 particle templates (mass 1.246597e+01) inserted so far.
WARNING: Particle insertion: Less insertions than requested (../fix_insert.cpp:814)
  141000      246      155.31781       429.3714           1.41 
  142000      246      157.56193      445.60855           1.42 
  143000      246      159.89242      429.09449           1.43 
  144000      246      162.22623      428.48448           1.44 
  145000      246      164.52721      434.59747           1.45 
  146000      246      166.73004      453.96237           1.46 
  147000      246      168.95553      449.33837           1.47 
  148000      246      171.27388      431.34149           1.48 
  149000      246      185.13346      72.152243           1.49 
  150000      246      188.78186      274.09319            1.5 
INFO: Particle insertion ins: inserted 16 particle templates (mass 8.107948e-01) at step 150001
 - a total of 262 particle templates (mass 1.327676e+01) inserted so far.
WARNING: Particle insertion: Less insertions than requested (../fix_insert.cpp:814)
  151000      262      191.22419       409.4446           1.51 
  152000      262      193.69846       404.1598           1.52 
  153000      262      196.17459       403.8554           1.53 
  154000      262      198.62628      407.88231           1.54 
  155000      262      201.06369      410.27105           1.55 
  156000      262      203.50453      409.69554           1.56 
  157000      262      205.92506      413.13235           1.57 
  158000      262      208.39291      405.21075           1.58 
  159000      262      210.95226      390.72522           1.59 
  160000      262      213.51875      389.63693            1.6 
INFO: Particle insertion ins: inserted 16 particle templates (mass 8.107948e-01) at step 160001
 - a total of 278 particle templates (mass 1.408756e+01) inserted so far.
WARNING: Particle insertion: Less insertions than requested (../fix_insert.cpp:814)
  161000      278      216.17878      375.93555           1.61 
  162000      278       218.7391      390.57543           1.62 
  163000      278       221.3215      387.23676           1.63 
  164000      278      224.00145      373.14134           1.64 
  165000      278       226.7153      368.48051           1.65 
  166000      278      229.33305       382.0076           1.66 
  167000      278       231.9217      386.30112           1.67 
  168000      278      234.57745      376.54217           1.68 
  169000      278      237.35154      360.47839           1.69 
  170000      278      240.13806      358.87002            1.7 
INFO: Particle insertion ins: inserted 17 particle templates (mass 8.614695e-01) at step 170001
 - a total of 295 particle templates (mass 1.494903e+01) inserted so far.
WARNING: Particle insertion: Less insertions than requested (../fix_insert.cpp:814)
  171000      295      242.90184      361.82352           1.71 
  172000      295      245.62638      367.03431           1.72 
  173000      295      248.36339      365.36256           1.73 
  174000      295      251.15548      358.15504           1.74 
  175000      295      253.89486       365.0462           1.75 
  176000      295      256.61007      368.29445           1.76 
  177000      295      259.32318      368.58174           1.77 
  178000      295      262.12813      356.51159           1.78 
  179000      295      265.09177       337.4231           1.79 
  180000      295      268.03534      339.72362            1.8 
INFO: Particle insertion ins: inserted 16 particle templates (mass 8.107948e-01) at step 180001
 - a total of 311 particle templates (mass 1.575982e+01) inserted so far.
WARNING: Particle insertion: Less insertions than requested (../fix_insert.cpp:814)
  181000      311      270.90439      348.54741           1.81 
  182000      311      275.19453      233.09275           1.82 
  183000      311      278.15868      337.36518           1.83 
  184000      311      281.15448      333.80012           1.84 
  185000      311      284.10251      339.21007           1.85 
  186000      311      287.04667      339.65543           1.86 
  187000      311      289.91038      349.19673           1.87 
  188000      311      292.90315      334.13841           1.88 
  189000      311      296.02635      320.18474           1.89 
  190000      311      299.18431      316.66032            1.9 
INFO: Particle insertion ins: inserted 16 particle templates (mass 8.107948e-01) at step 190001
 - a total of 327 particle templates (mass 1.657062e+01) inserted so far.
WARNING: Particle insertion: Less insertions than requested (../fix_insert.cpp:814)
  191000      327      302.30125      320.82788           1.91 
  192000      327      305.40086      322.62036           1.92 
  193000      327      308.58135      314.41702           1.93 
  194000      327       311.8702      304.05834           1.94 
  195000      327      314.96485      323.13778           1.95 
  196000      327      317.94649       335.3862           1.96 
  197000      327      320.98503      329.10497           1.97 
  198000      327      324.13618      317.34445           1.98 
  199000      327      327.39436      306.92038           1.99 
  200000      327      330.67931      304.41808              2 
INFO: Particle insertion ins: inserted 16 particle templates (mass 8.107948e-01) at step 200001
 - a total of 343 particle templates (mass 1.738141e+01) inserted so far.
WARNING: Particle insertion: Less insertions than requested (../fix_insert.cpp:814)
  201000      343      333.94327      306.37694           2.01 
  202000      343      337.23568      303.72859           2.02 
  203000      343      340.59638      297.55712           2.03 
  204000      343      343.89226      303.40886           2.04 
  205000      343      347.08644      313.06981           2.05 
  206000      343      350.22364      318.75555           2.06 
  207000      343      353.45271      309.68686           2.07 
  208000      343      356.76067      302.30102           2.08 
  209000      343      360.24417      287.06746           2.09 
  210000      343      363.67073      291.83785            2.1 
INFO: Particle insertion ins: inserted 18 particle templates (mass 9.121441e-01) at step 210001
 - a total of 361 particle templates (mass 1.829356e+01) inserted so far.
  211000      361      367.05775      295.24501           2.11 
  212000      361      370.37038      301.87438           2.12 
  213000      361      373.71406      299.07194           2.13 
  214000      361      377.07913      297.17058           2.14 
  215000      361      380.38768      302.24764           2.15 
  216000      361      383.61044      310.29266           2.16 
  217000      361      386.85832      307.89316           2.17 
  218000      361      390.32122      288.77486           2.18 
  219000      361      393.78633      288.59173           2.19 
  220000      361      397.29785      284.77672            2.2 
INFO: Particle insertion ins: inserted 15 particle templates (mass 7.601201e-01) at step 220001
 - a total of 376 particle templates (mass 1.905368e+01) inserted so far.
WARNING: Particle insertion: Less insertions than requested (../fix_insert.cpp:814)
  221000      376      400.75404      289.33595           2.21 
  222000      376      404.19275      290.80676           2.22 
  223000      376      407.63024      290.91024           2.23 
  224000      376      411.08169      289.73323           2.24 
  225000      376      414.50443      292.16321           2.25 
  226000      376      417.94918      290.29662           2.26 
  227000      376      421.36275      292.94908           2.27 
  228000      376       424.9098      281.92432           2.28 
  229000      376      428.55256      274.51665           2.29 
  230000      376      432.20061      274.11917            2.3 
INFO: Particle insertion ins: inserted 15 particle templates (mass 7.601201e-01) at step 230001
 - a total of 391 particle templates (mass 1.981380e+01) inserted so far.
WARNING: Particle insertion: Less insertions than requested (../fix_insert.cpp:814)
  231000      391      435.77967      279.40293           2.31 
  232000      391      439.41296      275.23315           2.32 
  233000      391      443.00521      278.37668           2.33 
  234000      391      446.62664       276.1343           2.34 
  235000      391      450.13946      284.67156           2.35 
  236000      391      453.59531      289.36422           2.36 
  237000      391      457.10577      284.86302           2.37 
  238000      391      460.77618      272.44926           2.38 
  239000      391      464.43907      273.00809           2.39 
  240000      391       468.0702      275.39664            2.4 
INFO: Particle insertion ins: inserted 15 particle templates (mass 7.601201e-01) at step 240001
 - a total of 406 particle templates (mass 2.057392e+01) inserted so far.
WARNING: Particle insertion: Less insertions than requested (../fix_insert.cpp:814)
  241000      406      471.76001      271.01624           2.41 
  242000      406       475.5834      261.54803           2.42 
  243000      406      479.39383      262.43759           2.43 
  244000      406      483.09278      270.34763           2.44 
  245000      406      486.75282      273.22067           2.45 
  246000      406      490.41259      273.24154           2.46 
  247000      406      494.02936      276.48977           2.47 
  248000      406       497.7287       270.3179           2.48 
  249000      406      501.60881      257.72492           2.49 
  250000      406      505.45009      260.33002            2.5 
INFO: Particle insertion ins: inserted 14 particle templates (mass 7.094454e-01) at step 250001
 - a total of 420 particle templates (mass 2.128336e+01) inserted so far.
WARNING: Particle insertion: Less insertions than requested (../fix_insert.cpp:814)
  251000      420      509.36968      255.12854           2.51 
  252000      420      513.25891      257.12036           2.52 
  253000      420      517.20548      253.38484           2.53 
  254000      420      521.01594      262.43496           2.54 
  255000      420      524.77209      266.23059           2.55 
  256000      420      528.50409      267.95293           2.56 
  257000      420      532.29503      263.78632           2.57 
  258000      420      536.21886      254.85314           2.58 
  259000      420      540.16811      253.21303           2.59 
  260000      420      544.14043      251.74187            2.6 
INFO: Particle insertion ins: inserted 16 particle templates (mass 8.107948e-01) at step 260001
 - a total of 436 particle templates (mass 2.209416e+01) inserted so far.
WARNING: Particle insertion: Less insertions than requested (../fix_insert.cpp:814)
  261000      436      548.04674      255.99611           2.61 
  262000      436      551.98795      253.72928           2.62 
  263000      436      555.84924       258.9805           2.63 
  264000      436      559.73166       257.5715           2.64 
  265000      436      563.54504      262.23435           2.65 
  266000      436       567.3482      262.93949           2.66 
  267000      436      571.23467      257.30263           2.67 
  268000      436      576.52748      188.93547           2.68 
  269000      436      580.56177      247.87525           2.69 
  270000      436      584.53587      251.62907            2.7 
INFO: Particle insertion ins: inserted 17 particle templates (mass 8.614695e-01) at step 270001
 - a total of 453 particle templates (mass 2.295563e+01) inserted so far.
WARNING: Particle insertion: Less insertions than requested (../fix_insert.cpp:814)
  271000      453      588.51883      251.06961           2.71 
  272000      453      592.55666      247.65816           2.72 
  273000      453      596.54654      250.63394           2.73 
  274000      453      600.45968      255.54952           2.74 
  275000      453      604.30401      260.12322           2.75 
  276000      453      608.16408      259.06251           2.76 
  277000      453      612.21546      246.82971           2.77 
  278000      453      616.35379      241.64323           2.78 
  279000      453      620.57059      237.14678           2.79 
  280000      453      624.79103      236.94209            2.8 
INFO: Particle insertion ins: inserted 15 particle templates (mass 7.601201e-01) at step 280001
 - a total of 468 particle templates (mass 2.371575e+01) inserted so far.
WARNING: Particle insertion: Less insertions than requested (../fix_insert.cpp:814)
  281000      468      628.90482      243.08476           2.81 
  282000      468      633.02837      242.50932           2.82 
  283000      468      637.17307      241.27188           2.83 
  284000      468      641.17278      250.01815           2.84 
  285000      468      645.10426      254.35728           2.85 
  286000      468      649.02404       255.1163           2.86 
  287000      468      653.00299       251.3227           2.87 
  288000      468      657.14117      241.65198           2.88 
  289000      468      661.36125      236.96265           2.89 
  290000      468      665.62511       234.5289            2.9 
INFO: Particle insertion ins: inserted 17 particle templates (mass 8.614695e-01) at step 290001
 - a total of 485 particle templates (mass 2.457722e+01) inserted so far.
WARNING: Particle insertion: Less insertions than requested (../fix_insert.cpp:814)
  291000      485      669.91468      233.12397           2.91 
  292000      485      674.20245      233.22104           2.92 
  293000      485      687.91255      72.938933           2.93 
  294000      485      692.08687      239.56019           2.94 
  295000      485      696.17141      244.82578           2.95 
  296000      485      700.22898      246.45272           2.96 
  297000      485      704.51373      233.38575           2.97 
  298000      485      708.87099      229.50233           2.98 
  299000      485      713.25426      228.14007           2.99 
  300000      485       717.6726      226.32917              3 
INFO: Particle insertion ins: inserted 14 particle templates (mass 7.094454e-01) at step 300001
 - a total of 499 particle templates (mass 2.528666e+01) inserted so far.
WARNING: Particle insertion: Less insertions than requested (../fix_insert.cpp:814)
  301000      499      721.96832      232.79014           3.01 
  302000      499      726.20231      236.18372           3.02 
  303000      499      730.44326      235.79608           3.03 
  304000      499      734.69385      235.26158           3.04 
  305000      499      738.88981      238.32446           3.05 
  306000      499       743.0284      241.62817           3.06 
  307000      499      747.34747      231.53152           3.07 
  308000      499      751.70165      229.66426           3.08 
  309000      499       756.1253      226.05733           3.09 
  310000      499      760.48603      229.31944            3.1 
INFO: Particle insertion ins: inserted 15 particle templates (mass 7.601201e-01) at step 310001
 - a total of 514 particle templates (mass 2.604678e+01) inserted so far.
WARNING: Particle insertion: Less insertions than requested (../fix_insert.cpp:814)
  311000      514      764.80984      231.27767           3.11 
  312000      514      769.82165      199.52889           3.12 
  313000      514       774.2569      225.46648           3.13 
  314000      514      778.60177      230.15629           3.14 
  315000      514      783.74114      194.57621           3.15 
  316000      514      787.93794      238.27683           3.16 
  317000      514      792.28453      230.06571           3.17 
  318000      514      796.82709       220.1399           3.18 
  319000      514      801.39315       219.0072           3.19 
  320000      514      805.84943      224.40275            3.2 
INFO: Particle insertion ins: inserted 18 particle templates (mass 9.121441e-01) at step 320001
 - a total of 532 particle templates (mass 2.695893e+01) inserted so far.
  321000      532      810.37424       221.0034           3.21 
  322000      532      814.89866      221.02282           3.22 
  323000      532      819.39337      222.48377           3.23 
  324000      532      836.62965      58.017169           3.24 
  325000      532      841.00428      228.59058           3.25 
  326000      532      845.32393      231.50046           3.26 
  327000      532      849.67674      229.73637           3.27 
  328000      532      854.20988      220.59797           3.28 
  329000      532      858.82028      216.90086           3.29 
  330000      532      863.52382       212.6056            3.3 
INFO: Particle insertion ins: inserted 16 particle templates (mass 8.107948e-01) at step 330001
 - a total of 548 particle templates (mass 2.776972e+01) inserted so far.
WARNING: Particle insertion: Less insertions than requested (../fix_insert.cpp:814)
  331000      548      868.15666      215.85056           3.31 
  332000      548      872.70707       219.7604           3.32 
  333000      548      878.42518      174.88279           3.33 
  334000      548      908.78721      32.935877           3.34 
  335000      548      913.17339      227.98897           3.35 
  336000      548      917.71703      220.08798           3.36 
  337000      548      922.42005      212.62939           3.37 
  338000      548      927.06794      215.15125           3.38 
  339000      548      931.68489      216.59308           3.39 
  340000      548      936.35641      214.06311            3.4 
INFO: Particle insertion ins: inserted 15 particle templates (mass 7.601201e-01) at step 340001
 - a total of 563 particle templates (mass 2.852984e+01) inserted so far.
WARNING: Particle insertion: Less insertions than requested (../fix_insert.cpp:814)
  341000      563      941.03687      213.65423           3.41 
  342000      563      945.69675      214.59786           3.42 
  343000      563      950.39706      212.75197           3.43 
  344000      563      954.97791      218.30015           3.44 
  345000      563      959.53193      219.58599           3.45 
  346000      563      964.09606      219.09978           3.46 
  347000      563      968.79226      212.93822           3.47 
  348000      563      973.49918      212.45329           3.48 
  349000      563      978.18669      213.33297           3.49 
  350000      563      982.88441      212.86903            3.5 
INFO: Particle insertion ins: inserted 16 particle templates (mass 8.107948e-01) at step 350001
 - a total of 579 particle templates (mass 2.934064e+01) inserted so far.
WARNING: Particle insertion: Less insertions than requested (../fix_insert.cpp:814)
  351000      579      987.61905      211.20932           3.51 
  352000      579      992.34783      211.47116           3.52 
  353000      579      997.03161      213.50282           3.53 
  354000      579      1001.6773       215.2552           3.54 
  355000      579      1006.2028      220.96769           3.55 
  356000      579       1010.633        225.724           3.56 
  357000      579      1015.3714      211.04142           3.57 
  358000      579      1020.1534      209.11912           3.58 
  359000      579      1024.8424      213.26161           3.59 
  360000      579      1029.5704      211.50563            3.6 
INFO: Particle insertion ins: inserted 16 particle templates (mass 8.107948e-01) at step 360001
 - a total of 595 particle templates (mass 3.015143e+01) inserted so far.
WARNING: Particle insertion: Less insertions than requested (../fix_insert.cpp:814)
  361000      595      1034.2389      214.20176           3.61 
  362000      595      1038.9427      212.59789           3.62 
  363000      595      1043.5931      215.03178           3.63 
  364000      595      1048.1277       220.5296           3.64 
  365000      595      1052.5543      225.90336           3.65 
  366000      595      1057.0103      224.42035           3.66 
  367000      595      1061.7213      212.26977           3.67 
  368000      595      1066.5223      208.28803           3.68 
  369000      595      1071.2727      210.50628           3.69 
  370000      595      1076.1582      204.69094            3.7 
INFO: Particle insertion ins: inserted 16 particle templates (mass 8.107948e-01) at step 370001
 - a total of 611 particle templates (mass 3.096223e+01) inserted so far.
WARNING: Particle insertion: Less insertions than requested (../fix_insert.cpp:814)
  371000      611      1080.9194      210.03025           3.71 
  372000      611       1085.632      212.19665           3.72 
  373000      611      1090.2424       216.9026           3.73 
  374000      611        1094.76      221.35597           3.74 
  375000      611      1099.2555      222.44275           3.75 
  376000      611      1104.0601      208.13327           3.76 
  377000      611      1108.9069      206.32056           3.77 
  378000      611      1113.6866      209.21831           3.78 
  379000      611      1118.4707      209.02631           3.79 
  380000      611       1123.212      210.91172            3.8 
INFO: Particle insertion ins: inserted 15 particle templates (mass 7.601201e-01) at step 380001
 - a total of 626 particle templates (mass 3.172235e+01) inserted so far.
WARNING: Particle insertion: Less insertions than requested (../fix_insert.cpp:814)
  381000      626      1127.9566      210.76748           3.81 
  382000      626      1132.6481      213.15005           3.82 
  383000      626      1137.2513      217.24096           3.83 
  384000      626       1141.716      223.98153           3.84 
  385000      626      1146.2101      222.51324           3.85 
  386000      626      1151.0173      208.01958           3.86 
  387000      626      1155.8129      208.52536           3.87 
  388000      626      1160.6015      208.82937           3.88 
  389000      626      1165.4722      205.31072           3.89 
  390000      626      1170.2511      209.25337            3.9 
INFO: Particle insertion ins: inserted 17 particle templates (mass 8.614695e-01) at step 390001
 - a total of 643 particle templates (mass 3.258382e+01) inserted so far.
WARNING: Particle insertion: Less insertions than requested (../fix_insert.cpp:814)
  391000      643      1175.1241      205.21241           3.91 
  392000      643      1181.1674       165.4725           3.92 
  393000      643      1185.9144      210.65733           3.93 
  394000      643      1190.4846      218.80742           3.94 
  395000      643      1195.0004      221.44927           3.95 
  396000      643      1199.6551      214.83364           3.96 
  397000      643      1204.5136      205.82531           3.97 
  398000      643      1209.5032      200.41868           3.98 
  399000      643      1214.3916      204.56383           3.99 
  400000      643      1219.2006      207.94251              4 
INFO: Particle insertion ins: inserted 14 particle templates (mass 7.094454e-01) at step 400001
 - a total of 657 particle templates (mass 3.329326e+01) inserted so far.
WARNING: Particle insertion: Less insertions than requested (../fix_insert.cpp:814)
  401000      657       1223.958      210.20255           4.01 
  402000      657      1228.7901      206.94733           4.02 
  403000      657      1233.5132      211.72516           4.03 
  404000      657      1238.1673      214.86642           4.04 
  405000      657      1242.6614      222.51204           4.05 
  406000      657       1247.476      207.70277           4.06 
  407000      657      1252.3655      204.51841           4.07 
  408000      657      1257.1936      207.11923           4.08 
  409000      657       1262.051      205.87281           4.09 
  410000      657      1266.8861      206.82158            4.1 
INFO: Particle insertion ins: inserted 16 particle templates (mass 8.107948e-01) at step 410001
 - a total of 673 particle templates (mass 3.410406e+01) inserted so far.
WARNING: Particle insertion: Less insertions than requested (../fix_insert.cpp:814)
  411000      673      1271.6588      209.52284           4.11 
  412000      673       1276.415      210.25257           4.12 
  413000      673      1281.1068      213.13997           4.13 
  414000      673      1285.7344      216.09459           4.14 
  415000      673      1290.2115      223.35569           4.15 
  416000      673      1294.8891      213.78519           4.16 
  417000      673       1299.638      210.57723           4.17 
  418000      673      1304.3047      214.28201           4.18 
  419000      673      1309.0648      210.08097           4.19 
  420000      673      1313.9156      206.15314            4.2 
INFO: Particle insertion ins: inserted 16 particle templates (mass 8.107948e-01) at step 420001
 - a total of 689 particle templates (mass 3.491485e+01) inserted so far.
WARNING: Particle insertion: Less insertions than requested (../fix_insert.cpp:814)
  421000      689        1318.82      203.89611           4.21 
  422000      689      1323.6412      207.42057           4.22 
  423000      689      1328.3818      210.94172           4.23 
  424000      689      1332.9463       219.0797           4.24 
  425000      689      1337.5485      217.28807           4.25 
  426000      689      1342.2689      211.84817           4.26 
  427000      689      1347.2165      202.11962           4.27 
  428000      689      1352.0862      205.35031           4.28 
  429000      689      1356.9992      203.54133           4.29 
  430000      689      1361.7849      208.95448            4.3 
INFO: Particle insertion ins: inserted 17 particle templates (mass 8.614695e-01) at step 430001
 - a total of 706 particle templates (mass 3.577632e+01) inserted so far.
WARNING: Particle insertion: Less insertions than requested (../fix_insert.cpp:814)
  431000      706      1366.4969       212.2239           4.31 
  432000      706      1371.2135      212.01914           4.32 
  433000      706      1375.9966      209.06817           4.33 
  434000      706      1380.7308       211.2314           4.34 
  435000      706      1385.4431      212.20852           4.35 
  436000      706      1390.3552      203.57968           4.36 
  437000      706      1395.2631      203.75248           4.37 
  438000      706      1400.0775      207.71165           4.38 
  439000      706      1404.9449      205.44567           4.39 
  440000      706      1409.9792      198.63716            4.4 
INFO: Particle insertion ins: inserted 16 particle templates (mass 8.107948e-01) at step 440001
 - a total of 722 particle templates (mass 3.658711e+01) inserted so far.
WARNING: Particle insertion: Less insertions than requested (../fix_insert.cpp:814)
  441000      722      1414.9354      201.76782           4.41 
  442000      722      1419.7625      207.16695           4.42 
  443000      722      1424.3577      217.61813           4.43 
  444000      722      1429.0229      214.35155           4.44 
  445000      722       1433.637      216.72855           4.45 
  446000      722      1438.5312       204.3234           4.46 
  447000      722      1443.5048      201.05922           4.47 
  448000      722      1448.4077      203.96159           4.48 
  449000      722       1453.297      204.52861           4.49 
  450000      722      1458.3096      199.49831            4.5 
INFO: Particle insertion ins: inserted 18 particle templates (mass 9.121441e-01) at step 450001
 - a total of 740 particle templates (mass 3.749926e+01) inserted so far.
  451000      740      1463.1616      206.09999           4.51 
  452000      740       1467.983      207.40649           4.52 
  453000      740       1472.673       213.2207           4.53 
  454000      740      1477.2128      220.27375           4.54 
  455000      740      1483.0595      171.03709           4.55 
  456000      740      1487.8499      208.75095           4.56 
  457000      740      1492.7558      203.83717           4.57 
  458000      740      1497.6876      202.76507           4.58 
  459000      740      1502.6441      201.75635           4.59 
  460000      740      1507.6865      198.31519            4.6 
INFO: Particle insertion ins: inserted 17 particle templates (mass 8.614695e-01) at step 460001
 - a total of 757 particle templates (mass 3.836073e+01) inserted so far.
WARNING: Particle insertion: Less insertions than requested (../fix_insert.cpp:814)
  461000      757      1512.5665      204.91954           4.61 
  462000      757      1517.3349      209.71366           4.62 
  463000      757      1521.9676      215.85713           4.63 
  464000      757      1526.5536      218.05604           4.64 
  465000      757      1531.1589      217.14261           4.65 
  466000      757      1535.9994      206.58743           4.66 
  467000      757      1540.8954      204.25077           4.67 
  468000      757       1545.805      203.68081           4.68 
  469000      757      1550.6888      204.75916           4.69 
  470000      757      1555.5621      205.19985            4.7 
INFO: Particle insertion ins: inserted 16 particle templates (mass 8.107948e-01) at step 470001
 - a total of 773 particle templates (mass 3.917152e+01) inserted so far.
WARNING: Particle insertion: Less insertions than requested (../fix_insert.cpp:814)
  471000      773      1560.4909      202.89069           4.71 
  472000      773      1565.3647      205.17506           4.72 
  473000      773      1570.0574      213.09901           4.73 
  474000      773       1574.631      218.64613           4.74 
  475000      773       1579.331      212.76749           4.75 
  476000      773      1584.1598      207.08963           4.76 
  477000      773      1588.9851      207.23858           4.77 
  478000      773      1593.8402      205.96994           4.78 
  479000      773        1598.69      206.19684           4.79 
  480000      773      1603.6095      203.27203            4.8 
INFO: Particle insertion ins: inserted 17 particle templates (mass 8.614695e-01) at step 480001
 - a total of 790 particle templates (mass 4.003299e+01) inserted so far.
WARNING: Particle insertion: Less insertions than requested (../fix_insert.cpp:814)
  481000      790      1608.4528       206.4702           4.81 
  482000      790      1613.1173       214.3844           4.82 
  483000      790      1617.7895      214.03333           4.83 
  484000      790      1622.4246      215.74292           4.84 
  485000      790      1627.0928      214.21732           4.85 
  486000      790      1632.0206       202.9312           4.86 
  487000      790      1636.9819      201.55939           4.87 
  488000      790      1641.8867      203.88192           4.88 
  489000      790       1646.728      206.55372           4.89 
  490000      790      1651.7138      200.57063            4.9 
INFO: Particle insertion ins: inserted 16 particle templates (mass 8.107948e-01) at step 490001
 - a total of 806 particle templates (mass 4.084379e+01) inserted so far.
WARNING: Particle insertion: Less insertions than requested (../fix_insert.cpp:814)
  491000      806      1656.6634      202.03604           4.91 
  492000      806      1661.5878      203.07235           4.92 
  493000      806      1666.3432      210.28473           4.93 
  494000      806      1670.9269      218.16773           4.94 
  495000      806      1675.4789      219.68017           4.95 
  496000      806      1680.2116      211.29508           4.96 
  497000      806      1685.1228      203.61628           4.97 
  498000      806       1690.113      200.39402           4.98 
  499000      806      1695.0496      202.56901           4.99 
  500000      806      1699.9393      204.51096              5 
INFO: Particle insertion ins: inserted 18 particle templates (mass 9.121441e-01) at step 500001
 - a total of 824 particle templates (mass 4.175593e+01) inserted so far.
  501000      824      1704.7054      209.81542           5.01 
  502000      824      1709.3377      215.87737           5.02 
  503000      824      1713.9531      216.66261           5.03 
  504000      824      1718.4979      220.03305           5.04 
  505000      824      1723.1363      215.59276           5.05 
  506000      824      1727.9375      208.27867           5.06 
  507000      824      1732.8853      202.11187           5.07 
  508000      824      1737.7511      205.51499           5.08 
  509000      824       1742.647      204.25427           5.09 
  510000      824      1747.6337      200.53253            5.1 
INFO: Particle insertion ins: inserted 16 particle templates (mass 8.107948e-01) at step 510001
 - a total of 840 particle templates (mass 4.256673e+01) inserted so far.
WARNING: Particle insertion: Less insertions than requested (../fix_insert.cpp:814)
  511000      840      1752.4839      206.17826           5.11 
  512000      840      1757.2849      208.28837           5.12 
  513000      840      1761.9501      214.35166           5.13 
  514000      840      1766.5438      217.69328           5.14 
  515000      840      1771.1749      215.92983           5.15 
  516000      840      1775.9144       210.9907           5.16 
  517000      840      1780.7899      205.10884           5.17 
  518000      840      1786.7967      166.47892           5.18 
  519000      840      1791.6538      205.88332           5.19 
  520000      840      1796.4869      206.90816            5.2 
INFO: Particle insertion ins: inserted 17 particle templates (mass 8.614695e-01) at step 520001
 - a total of 857 particle templates (mass 4.342820e+01) inserted so far.
WARNING: Particle insertion: Less insertions than requested (../fix_insert.cpp:814)
  521000      857      1801.1911      212.57572           5.21 
  522000      857      1805.8284      215.64238           5.22 
  523000      857      1810.3977      218.85182           5.23 
  524000      857      1814.9581      219.27694           5.24 
  525000      857      1819.6827      211.66068           5.25 
  526000      857      1824.6148      202.75039           5.26 
  527000      857      1829.5055      204.46974           5.27 
  528000      857      1834.4063      204.04787           5.28 
  529000      857      1839.2162      207.90789           5.29 
  530000      857      1843.9381      211.77604            5.3 
INFO: Particle insertion ins: inserted 16 particle templates (mass 8.107948e-01) at step 530001
 - a total of 873 particle templates (mass 4.423899e+01) inserted so far.
WARNING: Particle insertion: Less insertions than requested (../fix_insert.cpp:814)
  531000      873      1848.6524      212.12185           5.31 
  532000      873      1853.2751       216.3252           5.32 
  533000      873      1857.8457      218.78605           5.33 
  534000      873      1862.4288      218.19417           5.34 
  535000      873      1867.0625      215.81035           5.35 
  536000      873      1871.8383      209.38867           5.36 
  537000      873      1876.6904      206.09859           5.37 
  538000      873      1881.4831      208.65112           5.38 
  539000      873      1886.2659      209.08268           5.39 
  540000      873      1891.1963      202.82092            5.4 
INFO: Particle insertion ins: inserted 15 particle templates (mass 7.601201e-01) at step 540001
 - a total of 888 particle templates (mass 4.499911e+01) inserted so far.
WARNING: Particle insertion: Less insertions than requested (../fix_insert.cpp:814)
  541000      888      1896.0709      205.14636           5.41 
  542000      888       1900.805      211.23393           5.42 
  543000      888      1905.4395      215.77295           5.43 
  544000      888       1910.587      194.26861           5.44 
  545000      888      1915.3177        211.384           5.45 
  546000      888      1920.2468      202.87689           5.46 
  547000      888      1925.1307       204.7551           5.47 
  548000      888      1930.0105      204.92689           5.48 
  549000      888      1934.8576      206.30883           5.49 
  550000      888      1939.7898      202.74662            5.5 
INFO: Particle insertion ins: inserted 18 particle templates (mass 9.121441e-01) at step 550001
 - a total of 906 particle templates (mass 4.591125e+01) inserted so far.
  551000      906      1944.6149      207.25225           5.51 
  552000      906      1949.2933      213.74708           5.52 
  553000      906      1953.8867      217.70535           5.53 
  554000      906      1958.3729      222.90492           5.54 
  555000      906      1963.0267      214.87867           5.55 
  556000      906      1967.8295      208.21006           5.56 
  557000      906      1972.5903      210.05002           5.57 
  558000      906      1977.4392      206.23062           5.58 
  559000      906       1982.356       203.3858           5.59 
  560000      906      1987.1935      206.71799            5.6 
INFO: Particle insertion ins: inserted 16 particle templates (mass 8.107948e-01) at step 560001
 - a total of 922 particle templates (mass 4.672205e+01) inserted so far.
WARNING: Particle insertion: Less insertions than requested (../fix_insert.cpp:814)
  561000      922      1991.8557      214.49317           5.61 
  562000      922      1996.4714       216.6502           5.62 
  563000      922      2000.9988       220.8784           5.63 
  564000      922      2005.5954      217.54929           5.64 
  565000      922      2010.3302      211.20396           5.65 
  566000      922      2015.1444      207.71675           5.66 
  567000      922      2019.9212      209.34643           5.67 
  568000      922      2024.7521      207.00233           5.68 
  569000      922      2029.6435      204.44068           5.69 
  570000      922      2034.5352      204.42577            5.7 
INFO: Particle insertion ins: inserted 18 particle templates (mass 9.121441e-01) at step 570001
 - a total of 940 particle templates (mass 4.763419e+01) inserted so far.
  571000      940      2039.2953      210.08005           5.71 
  572000      940      2043.9312      215.71003           5.72 
  573000      940      2048.5353      217.19385           5.73 
  574000      940      2053.1676      215.87898           5.74 
  575000      940      2057.8005      215.84559           5.75 
  576000      940      2062.4283      216.08661           5.76 
  577000      940      2067.0662      215.61522           5.77 
  578000      940      2071.7419      213.87178           5.78 
  579000      940      2088.9662      58.057408           5.79 
  580000      940      2099.0224      99.440947            5.8 
INFO: Particle insertion ins: inserted 17 particle templates (mass 8.614695e-01) at step 580001
 - a total of 957 particle templates (mass 4.849566e+01) inserted so far.
WARNING: Particle insertion: Less insertions than requested (../fix_insert.cpp:814)
  581000      957      2103.8405      207.55243           5.81 
  582000      957       2108.434      217.70025           5.82 
  583000      957      2113.0203      218.03682           5.83 
  584000      957      2117.7662      210.70825           5.84 
  585000      957      2122.6296      205.61822           5.85 
  586000      957      2127.5395      203.66991           5.86 
  587000      957       2132.396      205.90909           5.87 
  588000      957      2137.3248      202.89264           5.88 
  589000      957      2142.0829      210.16592           5.89 
  590000      957      2146.7809       212.8564            5.9 
INFO: Particle insertion ins: inserted 15 particle templates (mass 7.601201e-01) at step 590001
 - a total of 972 particle templates (mass 4.925578e+01) inserted so far.
WARNING: Particle insertion: Less insertions than requested (../fix_insert.cpp:814)
  591000      972       2151.488      212.44334           5.91 
  592000      972      2156.0491      219.24888           5.92 
  593000      972      2160.5417      222.58584           5.93 
  594000      972      2165.1043      219.17619           5.94 
  595000      972       2169.879      209.43382           5.95 
  596000      972      2174.6756      208.48279           5.96 
  597000      972      2179.5209      206.38558           5.97 
  598000      972      2184.3846      205.60602           5.98 
  599000      972      2189.1922      208.00194           5.99 
  600000      972      2194.1904      200.07433              6 
INFO: Particle insertion ins: inserted 17 particle templates (mass 8.614695e-01) at step 600001
 - a total of 989 particle templates (mass 5.011725e+01) inserted so far.
WARNING: Particle insertion: Less insertions than requested (../fix_insert.cpp:814)
  601000      989      2198.8798      213.24574           6.01 
  602000      989      2203.4527      218.67652           6.02 
  603000      989      2208.0731      216.43204           6.03 
  604000      989      2212.7923      211.90055           6.04 
  605000      989      2217.5799      208.87401           6.05 
  606000      989      2222.3975      207.57235           6.06 
  607000      989      2227.2131      207.66045           6.07 
  608000      989      2231.9462      211.27518           6.08 
  609000      989      2236.6098      214.42541           6.09 
  610000      989      2241.3199      212.31267            6.1 
INFO: Particle insertion ins: inserted 15 particle templates (mass 7.601201e-01) at step 610001
 - a total of 1004 particle templates (mass 5.087737e+01) inserted so far.
WARNING: Particle insertion: Less insertions than requested (../fix_insert.cpp:814)
  611000     1004      2245.9302      216.90675           6.11 
  612000     1004      2250.5206      217.84509           6.12 
  613000     1004      2255.1574      215.66349           6.13 
  614000     1004      2259.9116      210.34294           6.14 
  615000     1004      2264.8028      204.44676           6.15 
  616000     1004      2269.7184      203.43298           6.16 
  617000     1004      2282.1443      80.477017           6.17 
  618000     1004      2287.2754      194.89212           6.18 
  619000     1004      2292.4051       194.9427           6.19 
  620000     1004      2297.4544      198.04559            6.2 
INFO: Particle insertion ins: inserted 15 particle templates (mass 7.601201e-01) at step 620001
 - a total of 1019 particle templates (mass 5.163749e+01) inserted so far.
WARNING: Particle insertion: Less insertions than requested (../fix_insert.cpp:814)
  621000     1019      2302.4415      200.51863           6.21 
  622000     1019      2307.3254       204.7565           6.22 
  623000     1019      2312.2282      203.96497           6.23 
  624000     1019       2317.204         200.97           6.24 
  625000     1019      2322.1163      203.57273           6.25 
  626000     1019      2327.2203      195.92326           6.26 
  627000     1019      2332.3335      195.57211           6.27 
  628000     1019      2337.5791      190.63603           6.28 
  629000     1019      2342.7547      193.21436           6.29 
  630000     1019      2347.9326      193.12857            6.3 
INFO: Particle insertion ins: inserted 18 particle templates (mass 9.121441e-01) at step 630001
 - a total of 1037 particle templates (mass 5.254964e+01) inserted so far.
  631000     1037       2353.036       195.9484           6.31 
  632000     1037      2358.0625      198.94748           6.32 
  633000     1037      2363.0445      200.72109           6.33 
  634000     1037      2368.1595      195.50282           6.34 
  635000     1037      2373.3074      194.25271           6.35 
  636000     1037      2378.4436      194.69685           6.36 
  637000     1037      2383.6168      193.30604           6.37 
  638000     1037      2389.9683       157.4421           6.38 
  639000     1037      2395.1215      194.05519           6.39 
  640000     1037      2400.4022      189.36715            6.4 
INFO: Particle insertion ins: inserted 18 particle templates (mass 9.121441e-01) at step 640001
 - a total of 1055 particle templates (mass 5.346178e+01) inserted so far.
  641000     1055      2405.5196       195.4125           6.41 
  642000     1055      2410.5777      197.70359           6.42 
  643000     1055      2415.6162      198.47161           6.43 
  644000     1055      2420.6146      200.06257           6.44 
  645000     1055      2425.7305      195.47072           6.45 
  646000     1055       2431.084      186.79184           6.46 
  647000     1055      2436.5219      183.89519           6.47 
  648000     1055      2441.9679      183.62291           6.48 
  649000     1055       2447.419      183.44868           6.49 
  650000     1055      2452.7156      188.79973            6.5 
INFO: Particle insertion ins: inserted 17 particle templates (mass 8.614695e-01) at step 650001
 - a total of 1072 particle templates (mass 5.432325e+01) inserted so far.
WARNING: Particle insertion: Less insertions than requested (../fix_insert.cpp:814)
  651000     1072      2457.7935      196.93043           6.51 
  652000     1072      2462.9283      194.75158           6.52 
  653000     1072       2468.119      192.64989           6.53 
  654000     1072      2473.4558      187.38082           6.54 
  655000     1072      2478.8504      185.36835           6.55 
  656000     1072      2484.2548      185.03719           6.56 
  657000     1072      2489.7445      182.15902           6.57 
  658000     1072      2495.2743       180.8381           6.58 
  659000     1072       2500.749      182.65895           6.59 
  660000     1072      2506.1375      185.58034            6.6 
INFO: Particle insertion ins: inserted 16 particle templates (mass 8.107948e-01) at step 660001
 - a total of 1088 particle templates (mass 5.513405e+01) inserted so far.
WARNING: Particle insertion: Less insertions than requested (../fix_insert.cpp:814)
  661000     1088       2511.435      188.76856           6.61 
  662000     1088      2516.6186      192.91292           6.62 
  663000     1088      2521.9377       188.0043           6.63 
  664000     1088      2527.5786      177.27691           6.64 
  665000     1088        2533.19      178.20656           6.65 
  666000     1088      2538.7635      179.42005           6.66 
  667000     1088      2544.3404      179.31168           6.67 
  668000     1088      2549.8418      181.77347           6.68 
  669000     1088      2555.2247      185.77265           6.69 
  670000     1088      2560.5845      186.57502            6.7 
INFO: Particle insertion ins: inserted 17 particle templates (mass 8.614695e-01) at step 670001
 - a total of 1105 particle templates (mass 5.599551e+01) inserted so far.
WARNING: Particle insertion: Less insertions than requested (../fix_insert.cpp:814)
  671000     1105      2565.9789      185.37703           6.71 
  672000     1105      2571.2884       188.3427           6.72 
  673000     1105      2576.5398      190.42456           6.73 
  674000     1105      2581.9448      185.01344           6.74 
  675000     1105      2587.6485      175.32357           6.75 
  676000     1105      2702.5325      8.7044377           6.76 
  677000     1105      2708.6371      163.80865           6.77 
  678000     1105      2714.6495      166.32495           6.78 
  679000     1105      2720.9605      158.45318           6.79 
  680000     1105      2726.7961      171.36169            6.8 
INFO: Particle insertion ins: inserted 16 particle templates (mass 8.107948e-01) at step 680001
 - a total of 1121 particle templates (mass 5.680631e+01) inserted so far.
WARNING: Particle insertion: Less insertions than requested (../fix_insert.cpp:814)
  681000     1121      2732.2945      181.87085           6.81 
  682000     1121      2737.7034      184.87903           6.82 
  683000     1121      2743.2836      179.20543           6.83 
  684000     1121      2749.0527      173.33915           6.84 
  685000     1121      2754.7391      175.85564           6.85 
  686000     1121      2760.5645      171.66359           6.86 
  687000     1121      2767.3549      147.26662           6.87 
  688000     1121      2773.1973       171.1617           6.88 
  689000     1121      2779.0018      172.28068           6.89 
  690000     1121      2784.6101      178.30818            6.9 
INFO: Particle insertion ins: inserted 15 particle templates (mass 7.601201e-01) at step 690001
 - a total of 1136 particle templates (mass 5.756643e+01) inserted so far.
WARNING: Particle insertion: Less insertions than requested (../fix_insert.cpp:814)
  691000     1136      2790.1439      180.70737           6.91 
  692000     1136       2795.768      177.80681           6.92 
  693000     1136      2801.4472      176.08056           6.93 
  694000     1136      2807.2456      172.46106           6.94 
  695000     1136      2830.7189      42.601616           6.95 
  696000     1136      2836.6666      168.13269           6.96 
  697000     1136      2842.6442      167.29123           6.97 
  698000     1136      2848.5819      168.41311           6.98 
  699000     1136       2854.481      169.51859           6.99 
  700000     1136       2860.425        168.236              7 
INFO: Particle insertion ins: inserted 17 particle templates (mass 8.614695e-01) at step 700001
 - a total of 1153 particle templates (mass 5.842790e+01) inserted so far.
WARNING: Particle insertion: Less insertions than requested (../fix_insert.cpp:814)
  701000     1153      2866.2204      172.55303           7.01 
  702000     1153      2872.0085      172.76694           7.02 
  703000     1153      2878.0095      166.63858           7.03 
  704000     1153      2883.8857      170.17926           7.04 
  705000     1153      2889.8622      167.32133           7.05 
  706000     1153      2895.9446      164.40948           7.06 
  707000     1153      2901.8711      168.73328           7.07 
  708000     1153      2910.1825      120.31668           7.08 
  709000     1153      2916.1056      168.83068           7.09 
  710000     1153      2922.0241      168.96199            7.1 
INFO: Particle insertion ins: inserted 16 particle templates (mass 8.107948e-01) at step 710001
 - a total of 1169 particle templates (mass 5.923869e+01) inserted so far.
WARNING: Particle insertion: Less insertions than requested (../fix_insert.cpp:814)
  711000     1169      2927.9198      169.61339           7.11 
  712000     1169      2933.8165      169.58572           7.12 
  713000     1169      2939.7172        169.473           7.13 
  714000     1169      2945.5686      170.89956           7.14 
  715000     1169      2951.6332      164.89146           7.15 
  716000     1169      2957.7495      163.49815           7.16 
  717000     1169       2963.869      163.40977           7.17 
  718000     1169      2970.0522      161.73011           7.18 
  719000     1169      2976.2403      161.59953           7.19 
  720000     1169      2982.3848      162.74702            7.2 
INFO: Particle insertion ins: inserted 15 particle templates (mass 7.601201e-01) at step 720001
 - a total of 1184 particle templates (mass 5.999881e+01) inserted so far.
WARNING: Particle insertion: Less insertions than requested (../fix_insert.cpp:814)
  721000     1184      3548.6025      1.7661052           7.21 
  722000     1184      4106.4685      1.7925451           7.22 
  723000     1184      4191.8913      11.706484           7.23 
  724000     1184       4199.374      133.64115           7.24 
  725000     1184      4205.7482      156.88367           7.25 
  726000     1184      4528.2703      3.1005619           7.26 
  727000     1184      4545.9749       56.48274           7.27 
  728000     1184      4593.7032      20.951923           7.28 
  729000     1184      4599.8433      162.86439           7.29 
  730000     1184      4605.8408      166.73514            7.3 
INFO: Particle insertion ins: inserted 17 particle templates (mass 8.614695e-01) at step 730001
 - a total of 1201 particle templates (mass 6.086028e+01) inserted so far.
WARNING: Particle insertion: Less insertions than requested (../fix_insert.cpp:814)
  731000     1201      4611.8009       167.7825           7.31 
  732000     1201      5180.1262      1.7595557           7.32 
  733000     1201      5467.0568      3.4851624           7.33 
  734000     1201      5473.3522       158.8468           7.34 
  735000     1201      5479.6483      158.83013           7.35 
  736000     1201      5485.9381      158.98506           7.36 
  737000     1201      5586.0403      9.9897994           7.37 
  738000     1201      5592.4487      156.04337           7.38 
  739000     1201      5598.8185      156.99237           7.39 
  740000     1201      5681.0137      12.166161            7.4 
INFO: Particle insertion ins: inserted 17 particle templates (mass 8.614695e-01) at step 740001
 - a total of 1218 particle templates (mass 6.172175e+01) inserted so far.
WARNING: Particle insertion: Less insertions than requested (../fix_insert.cpp:814)
  741000     1218      6009.8621      3.0409144           7.41 
  742000     1218      6264.0801      3.9336314           7.42 
  743000     1218      6569.9551      3.2693098           7.43 
  744000     1218      6576.3902      155.39889           7.44 
  745000     1218       6582.781      156.47514           7.45 
  746000     1218      6865.4767      3.5373713           7.46 
  747000     1218      6880.1171      68.304478           7.47 
  748000     1218      6886.6023      154.19573           7.48 
  749000     1218      6893.7076      140.74013           7.49 
  750000     1218       6900.196      154.12302            7.5 
INFO: Particle insertion ins: inserted 15 particle templates (mass 7.601201e-01) at step 750001
 - a total of 1233 particle templates (mass 6.248187e+01) inserted so far.
WARNING: Particle insertion: Less insertions than requested (../fix_insert.cpp:814)
  751000     1233      6906.5168      158.20681           7.51 
  752000     1233      6978.3342      13.924202           7.52 
  753000     1233      6985.0232      149.49818           7.53 
  754000     1233      6991.6966      149.85057           7.54 
  755000     1233      6998.2892      151.68394           7.55 
  756000     1233      7004.9124      150.98538           7.56 
  757000     1233      7011.5851      149.86406           7.57 
  758000     1233      7018.0918      153.68765           7.58 
  759000     1233      7024.6074      153.47702           7.59 
  760000     1233      7030.9932      156.59871            7.6 
INFO: Particle insertion ins: inserted 15 particle templates (mass 7.601201e-01) at step 760001
 - a total of 1248 particle templates (mass 6.324199e+01) inserted so far.
WARNING: Particle insertion: Less insertions than requested (../fix_insert.cpp:814)
  761000     1248      7037.3599      157.06575           7.61 
  762000     1248      7045.3808      124.67493           7.62 
  763000     1248      7051.9305      152.67812           7.63 
  764000     1248      7058.5546        150.965           7.64 
  765000     1248      7065.2897      148.47435           7.65 
  766000     1248      7071.9764      149.55204           7.66 
  767000     1248      7078.7421      147.80303           7.67 
  768000     1248      7085.4413      149.27183           7.68 
  769000     1248      7092.1575      148.89442           7.69 
  770000     1248       7098.811      150.29613            7.7 
INFO: Particle insertion ins: inserted 15 particle templates (mass 7.601201e-01) at step 770001
 - a total of 1263 particle templates (mass 6.400211e+01) inserted so far.
WARNING: Particle insertion: Less insertions than requested (../fix_insert.cpp:814)
  771000     1263      7105.4905      149.71232           7.71 
  772000     1263      7112.2403      148.15177           7.72 
  773000     1263      7118.9741      148.50499           7.73 
  774000     1263       7125.647      149.86088           7.74 
  775000     1263      7132.3482      149.22614           7.75 
  776000     1263      7139.1343      147.36051           7.76 
  777000     1263      7145.9041      147.71355           7.77 
  778000     1263       7152.611      149.10104           7.78 
  779000     1263      7159.2395      150.86438           7.79 
  780000     1263      7165.8133      152.11968            7.8 
INFO: Particle insertion ins: inserted 16 particle templates (mass 8.107948e-01) at step 780001
 - a total of 1279 particle templates (mass 6.481291e+01) inserted so far.
WARNING: Particle insertion: Less insertions than requested (../fix_insert.cpp:814)
  781000     1279      7172.2704      154.86769           7.81 
  782000     1279      7179.0757      146.94434           7.82 
  783000     1279      7185.9605      145.24611           7.83 
  784000     1279      7192.9664      142.73813           7.84 
  785000     1279       7199.927      143.66509           7.85 
  786000     1279      7206.9189      143.02194           7.86 
  787000     1279      7214.8679      125.80241           7.87 
  788000     1279      7221.7675      144.93529           7.88 
  789000     1279      7228.5503      147.43234           7.89 
  790000     1279      7235.2445      149.38363            7.9 
INFO: Particle insertion ins: inserted 18 particle templates (mass 9.121441e-01) at step 790001
 - a total of 1297 particle templates (mass 6.572505e+01) inserted so far.
  791000     1297      7241.8826      150.64478           7.91 
  792000     1297      7248.8209      144.12746           7.92 
  793000     1297      7255.9221      140.82093           7.93 
  794000     1297      7262.9258      142.78362           7.94 
  795000     1297      7270.0229      140.90241           7.95 
  796000     1297      7277.1009      141.28225           7.96 
[...]
 1040000     1693      10720.764      110.06891           10.4 
INFO: Particle insertion ins: inserted 17 particle templates (mass 8.614695e-01) at step 1040001
 - a total of 1710 particle templates (mass 8.665369e+01) inserted so far.
WARNING: Particle insertion: Less insertions than requested (../fix_insert.cpp:814)
 1041000     1710      10729.655      112.47969          10.41 
 1042000     1710      10738.493      113.14878          10.42 
 1043000     1710      10747.271      113.91411          10.43 
 1044000     1710      10755.958      115.11361          10.44 
 1045000     1710       10764.54       116.5237          10.45 
 1046000     1710      10772.945      118.97965          10.46 
 1047000     1710      10781.216      120.90945          10.47 
 1048000     1710      10789.387      122.37858          10.48 
 1049000     1710      10797.833      118.40435          10.49 
 1050000     1710      10806.512      115.21987           10.5 
INFO: Particle insertion ins: inserted 17 particle templates (mass 8.614695e-01) at step 1050001
 - a total of 1727 particle templates (mass 8.751516e+01) inserted so far.
WARNING: Particle insertion: Less insertions than requested (../fix_insert.cpp:814)
 1051000     1727      10815.066      116.90503          10.51 
 1052000     1727      10823.606       117.0916          10.52 
 1053000     1727      10833.457      101.51584          10.53 
 1054000     1727      10842.194      114.44925          10.54 
 1055000     1727      10850.967      113.99156          10.55 
 1056000     1727      10859.704      114.45412          10.56 
 1057000     1727      10868.156      118.31651          10.57 
 1058000     1727      10876.501      119.82406          10.58 
 1059000     1727      10885.043      117.06784          10.59 
 1060000     1727       10893.81      114.06717           10.6 
INFO: Particle insertion ins: inserted 17 particle templates (mass 8.614695e-01) at step 1060001
 - a total of 1744 particle templates (mass 8.837663e+01) inserted so far.
WARNING: Particle insertion: Less insertions than requested (../fix_insert.cpp:814)
 1061000     1744      10902.684      112.68737          10.61 
 1062000     1744       10911.55      112.79272          10.62 
 1063000     1744      10920.554      111.06618          10.63 
 1064000     1744      10929.537      111.32019          10.64 
 1065000     1744      10938.435      112.38656          10.65 
 1066000     1744      10947.056      115.98885          10.66 
 1067000     1744      10955.345      120.63939          10.67 
 1068000     1744      10964.139      113.72459          10.68 
 1069000     1744      10972.662      117.32145          10.69 
 1070000     1744      10981.029      119.52139           10.7 
INFO: Particle insertion ins: inserted 17 particle templates (mass 8.614695e-01) at step 1070001
 - a total of 1761 particle templates (mass 8.923810e+01) inserted so far.
WARNING: Particle insertion: Less insertions than requested (../fix_insert.cpp:814)
 1071000     1761      10989.825      113.68944          10.71 
 1072000     1761        10998.9      110.18445          10.72 
 1073000     1761      11007.887       111.2818          10.73 
 1074000     1761      11016.877      111.23292          10.74 
 1075000     1761      11025.592      114.74092          10.75 
 1076000     1761      11034.234      115.71665          10.76 
 1077000     1761      11042.735      117.63206          10.77 
 1078000     1761      11051.197      118.18088          10.78 
 1079000     1761      11060.119       112.0716          10.79 
 1080000     1761      11069.106      111.27948           10.8 
INFO: Particle insertion ins: inserted 17 particle templates (mass 8.614695e-01) at step 1080001
 - a total of 1778 particle templates (mass 9.009957e+01) inserted so far.
WARNING: Particle insertion: Less insertions than requested (../fix_insert.cpp:814)
 1081000     1778      11077.908      113.60255          10.81 
 1082000     1778      11086.664      114.20718          10.82 
 1083000     1778      11095.447      113.86628          10.83 
 1084000     1778      11104.136      115.08147          10.84 
 1085000     1778      11112.966        113.254          10.85 
 1086000     1778      11121.532        116.739          10.86 
 1087000     1778      11130.042      117.51223          10.87 
 1088000     1778      11139.892      101.51561          10.88 
 1089000     1778      11148.902       110.9942          10.89 
 1090000     1778      11157.721      113.38943           10.9 
INFO: Particle insertion ins: inserted 17 particle templates (mass 8.614695e-01) at step 1090001
 - a total of 1795 particle templates (mass 9.096104e+01) inserted so far.
WARNING: Particle insertion: Less insertions than requested (../fix_insert.cpp:814)
 1091000     1795      11166.384      115.43036          10.91 
 1092000     1795      11175.015      115.86366          10.92 
 1093000     1795      11183.836      113.37013          10.93 
 1094000     1795      11192.488      115.58248          10.94 
 1095000     1795      11200.869        119.315          10.95 
 1096000     1795       11209.22      119.74989          10.96 
 1097000     1795      11217.612      119.15857          10.97 
 1098000     1795      11225.814      121.91546          10.98 
 1099000     1795      11234.107      120.57957          10.99 
 1100000     1795      11242.941      113.19907             11 
INFO: Particle insertion ins: inserted 5 particle templates (mass 2.533734e-01) at step 1100001
 - a total of 1800 particle templates (mass 9.121441e+01) inserted so far.
 1101000     1800      11251.808      112.78331          11.01 
 1102000     1800      11260.467      115.48474          11.02 
 1103000     1800          11269      117.19996          11.03 
 1104000     1800      11277.521       117.3546          11.04 
 1105000     1800      11285.768       121.2559          11.05 
 1106000     1800      11294.028      121.05936          11.06 
 1107000     1800      11302.117       123.6247          11.07 
 1108000     1800      11311.387      107.88151          11.08 
 1109000     1800      11319.633      121.26217          11.09 
 1110000     1800      11327.934      120.47197           11.1 
 1111000     1800      11336.472      117.12277          11.11 
 1112000     1800      11345.202      114.55075          11.12 
 1113000     1800      11353.682       117.9243          11.13 
 1114000     1800      11362.128      118.39139          11.14 
 1115000     1800      11370.383      121.14144          11.15 
 1116000     1800      11378.344      125.61684          11.16 
 1117000     1800      11386.312      125.50586          11.17 
 1118000     1800      11394.171      127.24087          11.18 
 1119000     1800      11401.752      131.90163          11.19 
 1120000     1800      11409.287      132.71663           11.2 
 1121000     1800      11416.728      134.38531          11.21 
 1122000     1800      11424.187      134.07381          11.22 
 1123000     1800      11431.679      133.47567          11.23 
 1124000     1800      11440.037      119.64768          11.24 
 1125000     1800      11447.313       137.4414          11.25 
 1126000     1800      11454.502      139.09298          11.26 
 1127000     1800      11461.882      135.50788          11.27 
 1128000     1800       11469.06      139.31033          11.28 
 1129000     1800      11476.165      140.73659          11.29 
 1130000     1800      11483.169      142.77789           11.3 
 1131000     1800      11490.258      141.07442          11.31 
 1132000     1800      11497.404      139.92361          11.32 
 1133000     1800      11504.532      140.30406          11.33 
 1134000     1800      11511.639      140.69656          11.34 
 1135000     1800      11518.665       142.3406          11.35 
 1136000     1800       11525.71      141.94499          11.36 
 1137000     1800      11532.689      143.28024          11.37 
 1138000     1800      11539.841       139.8236          11.38 
 1139000     1800       11546.94      140.86088          11.39 
 1140000     1800      11553.989      141.86685           11.4 
 1141000     1800      11561.152      139.60612          11.41 
 1142000     1800      11568.204       141.8006          11.42 
 1143000     1800      11575.147      144.03964          11.43 
 1144000     1800      11582.014      145.61606          11.44 
 1145000     1800      11588.823      146.85798          11.45 
 1146000     1800      11595.615      147.24223          11.46 
 1147000     1800      11602.322      149.09244          11.47 
 1148000     1800      11609.006      149.60335          11.48 
 1149000     1800      11615.674      149.97611          11.49 
 1150000     1800      11622.373      149.27074           11.5 
 1151000     1799      11629.047      149.84798          11.51 
 1152000     1799       11635.67      150.98699          11.52 
 1153000     1799      11642.262      151.69192          11.53 
 1154000     1799      11648.823      152.41411          11.54 
 1155000     1799      11655.363      152.92283          11.55 
 1156000     1799      11661.924      152.41095          11.56 
 1157000     1799      11668.422      153.88317          11.57 
 1158000     1798      11674.951      153.17601          11.58 
 1159000     1798      11681.457      153.68496          11.59 
 1160000     1798       11687.96      153.79523           11.6 
 1161000     1798      11694.541      151.94947          11.61 
 1162000     1798      11701.299      147.97513          11.62 
 1163000     1798      11708.056       147.9822          11.63 
 1164000     1797      11714.684      150.88693          11.64 
 1165000     1797      11721.312      150.86682          11.65 
 1166000     1797      11727.859      152.73324          11.66 
 1167000     1797      11734.388      153.16428          11.67 
 1168000     1797      11741.986      131.62143          11.68 
 1169000     1797      11748.492      153.71036          11.69 
 1170000     1797      11755.018      153.22572           11.7 
 1171000     1797      11761.574      152.52004          11.71 
 1172000     1797      11768.108       153.0516          11.72 
 1173000     1797      11774.629      153.36415          11.73 
 1174000     1797      11781.194      152.32232          11.74 
 1175000     1797      11788.043      145.99302          11.75 
 1176000     1797      11795.068      142.35868          11.76 
 1177000     1797      11802.447      135.51089          11.77 
 1178000     1797      11809.694      137.98483          11.78 
 1179000     1797      11816.608      144.63392          11.79 
 1180000     1797      11823.417       146.8842           11.8 
 1181000     1797      11830.082      150.03664          11.81 
 1182000     1797      11836.664      151.92779          11.82 
 1183000     1797      11843.243      151.98049          11.83 
 1184000     1797      11849.752      153.64802          11.84 
 1185000     1797      11856.263      153.58631          11.85 
 1186000     1797      11862.753      154.06908          11.86 
 1187000     1797       11869.24      154.16765          11.87 
 1188000     1797      11875.671      155.49466          11.88 
 1189000     1797      11882.158      154.15058          11.89 
 1190000     1797      11888.634      154.41294           11.9 
 1191000     1797      11895.061      155.59553          11.91 
 1192000     1797      11901.536      154.44159          11.92 
 1193000     1797      11907.984      155.08094          11.93 
 1194000     1797      11914.372      156.55692          11.94 
 1195000     1797      11920.817      155.16184          11.95 
 1196000     1797      11927.222      156.11563          11.96 
 1197000     1797        11933.6      156.80334          11.97 
 1198000     1797      11940.006      156.09042          11.98 
 1199000     1797      11946.413      156.09288          11.99 
 1200000     1797      11952.813      156.24793             12 
Loop time of 12848.9 on 80 procs for 1199999 steps with 1797 atoms, finish time Sat Sep  1 23:49:42 2018


Pair  time (%) = 495.906 (3.85951)
Neigh time (%) = 1.66561 (0.012963)
Comm  time (%) = 50.6861 (0.394477)
Outpt time (%) = 18.7919 (0.146253)
Other time (%) = 12281.9 (95.5868)

Nlocal:    22.4625 ave 271 max 0 min
Histogram: 68 0 2 5 1 0 0 0 0 4
Nghost:    85.2625 ave 630 max 0 min
Histogram: 60 8 0 0 0 7 1 0 0 4
Neighs:    873.175 ave 10718 max 0 min
Histogram: 68 0 4 4 0 0 0 0 0 4

Total # of neighbors = 69854
Ave neighs/atom = 38.8726
Neighbor list builds = 32836
Dangerous builds = 0
unfix ins
run       100000
Setting up run at Sat Sep  1 23:49:42 2018

Memory usage per processor = 14.4494 Mbytes
    Step    Atoms            CPU          S/CPU           Time 
 1200000     1797              0              0             12 
 1201000     1797      6.3990485      156.27319          12.01 
 1202000     1797      12.776981      156.79061          12.02 
 1203000     1797      19.140657      157.14186          12.03 
 1204000     1797       25.53207      156.45995          12.04 
 1205000     1797      31.912567       156.7276          12.05 
 1206000     1797      38.268304      157.33815          12.06 
 1207000     1797      44.626714      157.27203          12.07 
 1208000     1797      51.006286      156.75034          12.08 
 1209000     1797      57.349144      157.65763          12.09 
 1210000     1797      63.711238      157.18096           12.1 
 1211000     1797      70.085814      156.87317          12.11 
 1212000     1797      76.422555      157.80984          12.12 
 1213000     1797      82.773786      157.44977          12.13 
 1214000     1797      90.150551      135.56077          12.14 
 1215000     1797      96.480166      157.98751          12.15 
 1216000     1797      102.82266      157.66671          12.16 
 1217000     1797      109.18325      157.21803          12.17 
 1218000     1797      115.51868      157.84262          12.18 
 1219000     1797       121.8478      157.99967          12.19 
 1220000     1797      128.23608      156.53663           12.2 
 1221000     1797      134.56883      157.90933          12.21 
 1222000     1797      140.89507      158.07197          12.22 
 1223000     1797      147.24642      157.44678          12.23 
 1224000     1797      153.57755      157.94968          12.24 
 1225000     1797      159.90235      158.10766          12.25 
 1226000     1797      166.24889      157.56632          12.26 
 1227000     1797      172.57414      158.09647          12.27 
 1228000     1797      178.89419      158.22647          12.28 
 1229000     1797      185.23376       157.7396          12.29 
 1230000     1797      191.55765      158.13035           12.3 
 1231000     1797      197.86865      158.45362          12.31 
 1232000     1797      204.19892      157.97117          12.32 
 1233000     1797      210.52359      158.11092          12.33 
 1234000     1797       216.8353      158.43568          12.34 
 1235000     1797       223.1616       158.0702          12.35 
 1236000     1797      229.48719      158.08797          12.36 
 1237000     1797      235.79627      158.50179          12.37 
 1238000     1797      242.12327      158.05281          12.38 
 1239000     1797      248.44785      158.11325          12.39 
 1240000     1797      254.81059      157.16499           12.4 
 1241000     1797      261.13247      158.18082          12.41 
 1242000     1797      267.45851      158.07685          12.42 
 1243000     1797      273.76683      158.52083          12.43 
 1244000     1797      280.08993      158.15017          12.44 
 1245000     1797      286.40958      158.23659          12.45 
 1246000     1797      292.71604      158.56772          12.46 
 1247000     1797      299.03765      158.18752          12.47 
 1248000     1797      305.36066      158.15259          12.48 
 1249000     1797      311.66423      158.64011          12.49 
 1250000     1797      317.97909      158.35669           12.5 
 1251000     1797      324.31615      157.80185          12.51 
 1252000     1797        330.622      158.58303          12.52 
 1253000     1797      336.93594      158.37968          12.53 
 1254000     1797      343.25564      158.23532          12.54 
 1255000     1797      349.56295      158.54626          12.55 
 1256000     1797      355.87878      158.33233          12.56 
 1257000     1797      362.19219      158.39299          12.57 
 1258000     1797      368.49756      158.59487          12.58 
 1259000     1797      374.81122      158.38679          12.59 
 1260000     1797      381.17801      157.06498           12.6 
 1261000     1797      388.00259      146.52909          12.61 
 1262000     1797      394.78745      147.38704          12.62 
 1263000     1797      401.09961      158.42442          12.63 
 1264000     1797      407.40592      158.57123          12.64 
 1265000     1797      413.71259      158.56232          12.65 
 1266000     1797      420.02704      158.36682          12.66 
 1267000     1797      426.33608      158.50273          12.67 
 1268000     1797      432.63975      158.63784          12.68 
 1269000     1797      438.95159      158.43255          12.69 
 1270000     1797      445.25372       158.6763           12.7 
 1271000     1797      451.56038       158.5627          12.71 
 1272000     1797       457.8696      158.49816          12.72 
 1273000     1797      464.17349      158.63217          12.73 
 1274000     1797      470.47706      158.64033          12.74 
 1275000     1797      476.78649      158.49293          12.75 
 1276000     1797      483.09135      158.60773          12.76 
 1277000     1797      489.39573      158.61977          12.77 
 1278000     1797      495.70475      158.50333          12.78 
 1279000     1797      502.01227       158.5408          12.79 
 1280000     1797      508.35988      157.53963           12.8 
 1281000     1797      514.66456      158.61235          12.81 
 1282000     1797      520.96826      158.63697          12.82 
 1283000     1797      527.27159      158.64646          12.83 
 1284000     1797      533.57581      158.62393          12.84 
 1285000     1797      539.88231      158.56637          12.85 
 1286000     1797      546.18461      158.67243          12.86 
 1287000     1797      552.48865      158.62834          12.87 
 1288000     1797      558.79239      158.63589          12.88 
 1289000     1797      565.09487      158.66778          12.89 
 1290000     1797      571.40115      158.57208           12.9 
 1291000     1797      577.70548      158.62109          12.91 
 1292000     1797      584.00516      158.73822          12.92 
 1293000     1797      590.30818      158.65412          12.93 
 1294000     1797      596.60956      158.69532          12.94 
 1295000     1797      602.91142      158.68334          12.95 
 1296000     1797      609.21654      158.60148          12.96 
 1297000     1797       615.5196       158.6529          12.97 
 1298000     1797      621.82332      158.63662          12.98 
 1299000     1797      628.14695      158.13684          12.99 
 1300000     1797      634.50213      157.35213             13 
Loop time of 682.072 on 80 procs for 100000 steps with 1797 atoms, finish time Sun Sep  2 00:00:13 2018


Pair  time (%) = 45.8657 (6.72447)
Neigh time (%) = 0 (0)
Comm  time (%) = 3.63425 (0.532825)
Outpt time (%) = 0.87187 (0.127827)
Other time (%) = 631.7 (92.6149)

Nlocal:    22.4625 ave 271 max 0 min
Histogram: 68 0 2 5 1 0 0 0 0 4
Nghost:    85.2125 ave 630 max 0 min
Histogram: 60 8 0 0 0 7 1 0 0 4
Neighs:    873.15 ave 10718 max 0 min
Histogram: 68 0 4 4 0 0 0 0 0 4

Total # of neighbors = 69852
Ave neighs/atom = 38.8715
Neighbor list builds = 0
Dangerous builds = 0
write_restart   pack.restart

#fix zwalls2 all wall/gran model hertz tangential history rolling_friction epsd2 surface superquadric primitive type 1 zplane 0

