LAMMPS data file

  7915  atoms

   3 atom types

  0.0000000000000000000  50.0000000000000000000 xlo xhi
  0.0000000000000000000  50.0000000000000000000 ylo yhi
  0.0000000000000000000 100.8333333333333285964 zlo zhi

Atoms # sphere

    1    1  5.94828  4.85000    7.282953862188412   46.347635861384511   75.459235860680394
    2    1  4.81034  4.85000   15.289551966362238   11.534815569217768   48.214404926637663
    3    1  4.81034  4.85000   14.481201718502476   34.224471643484868   45.784316050862436
    4    1  4.81034  4.85000   29.254814803630090   18.598740308214182   40.923290942089615
    5    1  4.70690  4.85000    8.634623040739939   28.340422125151338   40.111182312988674
    6    1  4.70690  4.85000   20.327404807782141   20.675568923245716    6.451053495193037
    7    1  4.70690  4.85000   30.034059527741366   44.374992074543677   16.502979142984735
    8    1  4.70690  4.85000   31.262402248045255   47.449717716978284   95.624793142666718
    9    1  4.70690  4.85000   16.971999480175281   13.522061072701657   86.648124381758549
   10    1  4.70690  4.85000   26.210183507091131   36.355792667052199   36.511424653708488
   11    1  4.70690  4.85000   40.077206760992283   22.937590841884521   15.083283482061740
   12    1  4.70690  4.85000    6.760633518659377   29.513921546079906   62.999830378524365
   13    1  4.70690  4.85000    4.481530846135720    4.120520325191846   18.302234845696372
   14    1  4.70690  4.85000   20.913112105741487   37.093589324176257    4.906468790593403
   15    1  4.70690  4.85000   12.783582201143723   33.042402959226287   15.215353999478463
   16    1  4.70690  4.85000   18.034706308799095    6.837833849774738   69.088395528948070
   17    1  4.70690  4.85000   10.073647227489651    6.542962377552016   76.915652600327988
   18    1  4.70690  4.85000   19.878854077479460   23.354284704025041   58.136991879624432
   19    1  4.70690  4.85000   21.844194474450585   24.985569646362670   94.271726669518344
   20    1  4.70690  4.85000    9.380496196399729   46.550113358132769   56.193703397598000
   21    1  4.70690  4.85000   22.111840659499816    8.030153369253643   72.071749533511280
   22    1  4.70690  4.85000   23.303038127938681   38.565377426812560   97.636573169434755
   23    1  4.70690  4.85000   47.385662049879208   45.290325691722380   29.462129815453714
   24    1  4.70690  4.85000   33.765987521450889    7.758318320550279   45.846960921704131
   25    1  4.70690  4.85000    3.687504695366512   46.393682113755524   82.434643163417107
   26    1  4.70690  4.85000    2.730839017531330   32.360456865856143   41.964535046913007
   27    1  4.70690  4.85000   34.008999662055402    7.693871950833778   77.153441221149123
   28    1  4.70690  4.85000   35.277544884876455   31.862073056320313   83.454308278250565
   29    1  4.70690  4.85000   36.312255046378525   34.999484736907405   26.918297546292226
   30    1  4.70690  4.85000   23.591214771026483   38.153034481413052   14.234392728785101
   31    1  4.70690  4.85000   37.722342380442498    7.286462716485124   89.597785854109432
   32    1  4.70690  4.85000   27.531926414256063   15.021195182880167   23.994347945300024
   33    1  4.70690  4.85000   22.657970589857932   21.434259244687507   82.175850853544944
   34    1  4.70690  4.85000   25.304682190540849   43.518725468171070   31.930641846144859
   35    1  4.70690  4.85000   10.010509604813183   36.006462229506575    2.539387479631051
   36    1  4.70690  4.85000   35.038572213932426   29.763600978409219   75.210636026490278
   37    1  4.70690  4.85000   38.201100927731389   13.750257445655706   26.175259585951171
   38    1  4.70690  4.85000   44.117174066803891   20.913783386980530   78.406336400962587
   39    1  4.70690  4.85000   33.148373292376455   47.062256923191093   11.598546844411128
   40    1  4.60345  4.85000   25.223891754727987   47.254068655783570   79.735036695868757
   41    1  4.60345  4.85000   45.422167493325865    7.693991584387765   24.511355277534875
   42    1  4.60345  4.85000   45.242458444019796   38.607175524036521   95.993405786431197
   43    1  4.60345  4.85000   45.740269042126918   10.674883703376917   14.513980724080824
   44    1  4.60345  4.85000   18.304431176139254   16.766859457062253   10.351187222734040
   45    1  4.60345  4.85000    8.172030998246008   14.992286668369669   40.137477635232948
   46    1  4.60345  4.85000   45.475847654113437   32.145921515328588   52.034977438113941
   47    1  4.60345  4.85000   18.834030906655556    7.027008537543774   45.148752473650788
   48    1  4.60345  4.85000    6.138072333765992   22.550031834537819   69.686372369473986
   49    1  4.60345  4.85000   22.709285440658586    3.339437891434432   89.507645504510464
   50    1  4.60345  4.85000   13.038273867986227    6.195499051216673   70.859678923175224
   51    1  4.60345  4.85000   38.731927447155556   39.507162427380429    6.847128082532516
   52    1  4.60345  4.85000   20.227673788769483   43.862658573415672   40.770863696303834
   53    1  4.60345  4.85000    8.282856389651663   41.650299405976135   13.638256995485559
   54    1  4.60345  4.85000   13.880834288180026   42.346372493414457   74.678476007050051
   55    1  4.60345  4.85000    6.496729892893897   31.929411161190732   44.830960859015612
   56    1  4.60345  4.85000   12.293805652405286   11.162226621650532   81.501334189834964
   57    1  4.60345  4.85000   22.844843439583165   38.459936523676063   84.235634696823070
   58    1  4.60345  4.85000   45.499083391152197   17.705518139617045    4.270434047404317
   59    1  4.60345  4.85000    6.727313896938205   44.093279862181596   49.727316099632766
   60    1  4.60345  4.85000    9.641060968598183   39.971528418598268   41.078378226873255
   61    1  4.60345  4.85000   38.298659623105472   28.461392413970763   82.242332275980175
   62    1  4.60345  4.85000   12.162803521426358   13.106365564108394   75.729147440933872
   63    1  4.60345  4.85000   10.386269266988471   16.891479977468698   91.418518533449884
   64    1  4.60345  4.85000    4.912510985561224   43.528293244088474   55.450790265152008
   65    1  4.60345  4.85000    6.157609027856276   31.145878560046445   94.772190014303490
   66    1  4.60345  4.85000   36.765759002714653   44.014986982438515   95.668664683847894
   67    1  4.60345  4.85000   17.008298658863122   11.474223437262332   91.057012796998791
   68    1  4.60345  4.85000   24.487911452055553   14.591065409110406   38.179599948945821
   69    1  4.60345  4.85000   37.947448361062762   19.785754844760291   23.222786003066396
   70    1  4.60345  4.85000    6.413822526049952    7.812103053017662   15.670146343115153
   71    1  4.60345  4.85000   31.836531709280020   26.820855953865205   96.827157239705826
   72    1  4.60345  4.85000   46.933047207930414    2.639537736145580   93.383615858053105
   73    1  4.60345  4.85000   17.225864028122633   34.995826743023152   58.050407569777136
   74    1  4.60345  4.85000   42.322539349773528    5.863622254747938    2.302690675389051
   75    1  4.60345  4.85000   22.412889001593037   40.674194107607505   88.613704613752091
   76    1  4.60345  4.85000    9.423022678280244   38.912584370511148   66.818335492563818
   77    1  4.60345  4.85000   17.985302464790664    2.788599657283900   81.707355531128229
   78    1  4.60345  4.85000   19.425045572315160    9.441361660719249   24.294478822356989
   79    1  4.60345  4.85000   23.165179415325102    7.751359729880460    9.625462715075933
   80    1  4.60345  4.85000   44.512703665440220   39.416467322902967   35.271615594567365
   81    1  4.60345  4.85000   27.388427917524158   31.075439768050991   56.569921018071845
   82    1  4.60345  4.85000   32.185932428296674   31.031172985501492   65.905938204602819
   83    1  4.60345  4.85000    5.538227728882466   34.397892955084203   18.017644564008545
   84    1  4.60345  4.85000   16.060498892534259    9.299338768397636    6.136706838900927
   85    1  4.60345  4.85000   37.486566044571966   23.696747936023410   85.156479264582103
   86    1  4.60345  4.85000   14.048763055920691    6.346003814359254   83.805031684561911
   87    1  4.60345  4.85000    8.362320612030683   31.874313954453989   13.386302938075307
   88    1  4.60345  4.85000   36.441586997135410   42.160157300832019   47.643822304113293
   89    1  4.60345  4.85000   42.184933012271806    3.000015566109522   88.263541337075566
   90    1  4.60345  4.85000   45.310006078104344    6.261675669676716   49.715725117691527
   91    1  4.60345  4.85000   46.242442269952392   18.124493861715287   60.108435942950123
   92    1  4.60345  4.85000   21.777336904310779   29.658979040682578   61.947695517642906
   93    1  4.60345  4.85000   14.935495710612187    3.458507486874817   62.413855774740625
   94    1  4.60345  4.85000    9.808515945898192   26.979622074652479   93.803390011175665
   95    1  4.60345  4.85000   40.138417119403130   12.545728789336213   20.919712220105513
   96    1  4.60345  4.85000   31.230056580920120    7.991551588433079   22.244636325293534
   97    1  4.60345  4.85000   38.532376056558576   45.497878378149814   72.215081301065155
   98    1  4.60345  4.85000   44.916039787950112    7.728405890653526   76.839937674282723
   99    1  4.60345  4.85000   40.233287907476054   33.713587049502685   14.440655844801231
  100    1  4.60345  4.85000   25.597391146455045   28.314932063855842   71.035360998916929
  101    1  4.60345  4.85000   36.941613418648537   34.339498243405728   19.586451653266238
  102    1  4.60345  4.85000   22.569562836991704   47.695217106516807   68.778756082784469
  103    1  4.60345  4.85000   13.380503254070309   25.823769805672548   60.772947856687992
  104    1  4.60345  4.85000   28.802764386823736   17.281641992636960   77.611143454910803
  105    1  4.60345  4.85000    2.329604287015435    4.648661469134662   37.548436918144233
  106    1  4.60345  4.85000   17.943100749002955   22.542515312976693   83.703283049676898
  107    1  4.60345  4.85000   26.396612545271921   13.383018535806730   30.608494932733119
  108    1  4.60345  4.85000   19.397799183581999   13.036084206387532   44.576802540976736
  109    1  4.60345  4.85000   32.323960066263624   30.758543958122544   45.924735906911707
  110    1  4.60345  4.85000   42.376370467168776   19.385536421079404   34.812713150871872
  111    1  4.60345  4.85000   47.659510611522570   12.627871547697854    6.559514065181779
  112    1  4.60345  4.85000   30.115126794307699   44.777972262902537   52.198202319004452
  113    1  4.60345  4.85000   36.464971393664456   37.124421330866433   72.971308986138752
  114    1  4.60345  4.85000    8.559674792164493    3.309382521897023   69.406740977277181
  115    1  4.60345  4.85000    7.668500267765718   20.824712425155639   27.239485170572468
  116    1  4.60345  4.85000   17.878621183637854    6.067991958389968   33.662895022110838
  117    1  4.60345  4.85000   43.401698175979895   17.769481156687171   45.605473333084376
  118    1  4.60345  4.85000   15.706778032703959   29.759750969686198   13.110787998180221
  119    1  4.60345  4.85000   27.140982645171079   17.138598459249167   85.604117082626288
  120    1  4.60345  4.85000   44.413073148010561   32.138773489584523   78.678064790058116
  121    1  4.60345  4.85000   33.490569443313028   38.588617106412777   44.883181585370878
  122    1  4.60345  4.85000   34.344681949879096    5.330036160905207   65.404248965007824
  123    1  4.60345  4.85000    3.589353813927290   15.947768826507641   14.920681635273176
  124    1  4.60345  4.85000   40.365272002510459   10.681056486405293   42.518442965723935
  125    1  4.60345  4.85000   28.470529854608330   14.477711263413465   71.074497578348812
  126    1  4.60345  4.85000   13.256954109210952   39.529298955434911   88.751589669321746
  127    1  4.60345  4.85000   40.717361407385845   37.733738909349718   54.063049128565524
  128    1  4.60345  4.85000   42.464398087968647   14.707500198789095   12.577485368093605
  129    1  4.60345  4.85000   11.747598009908838   17.388052406689930    6.347008317046162
  130    1  4.60345  4.85000   27.620966165286656   11.586798971522978   43.787198277827827
  131    1  4.60345  4.85000   10.925592637925075   21.818367425338135   51.573366648466234
  132    1  4.60345  4.85000   25.387852900567385   26.925038564565053   59.796235164381017
  133    1  4.60345  4.85000   32.907302352671884   18.282444452648743   17.368655698026309
  134    1  4.60345  4.85000   11.237231667579039   17.103875016136282   32.809095709754907
  135    1  4.60345  4.85000   28.740708202566491   12.069966521646300   16.069548921745600
  136    1  4.60345  4.85000   46.256516398571399   24.773921114717123   32.872142572810596
  137    1  4.60345  4.85000   42.766972553896707   38.486264611415884   63.195118572110609
  138    1  4.60345  4.85000   14.204339785542352   35.594932938862783   22.053198190253589
  139    1  4.60345  4.85000    6.711330217029199   26.240424680003255   97.508632483232105
  140    1  4.60345  4.85000   19.304487685025141   35.947315029206209   66.462593677138202
  141    1  4.60345  4.85000   33.396898991811526   41.070200303570907   14.951971241626183
  142    1  4.60345  4.85000   28.534527908109627   37.516659840615588   57.869934830045352
  143    1  4.60345  4.85000    7.312268261638255    4.012935660527208   51.345779565365994
  144    1  4.60345  4.85000   10.739062385655583   16.322891352235754   61.564338207224566
  145    1  4.60345  4.85000   46.636097652459391   21.464784119501189   22.236124930339514
  146    1  4.60345  4.85000   38.197909144859928   44.132029898195874   54.161929632789217
  147    1  4.60345  4.85000    4.082560841450588    8.592597833966096   75.688969880433248
  148    1  4.60345  4.85000   44.570760840735197    2.533563501846131   20.096204490471688
  149    1  4.60345  4.85000   15.173737380747081   30.196140985884931   50.399017585496971
  150    1  4.60345  4.85000   10.983228931747856   45.513263996011496    3.040897589533996
  151    1  4.60345  4.85000   22.586814265278388   31.172990544739040   20.131570281528489
  152    1  4.60345  4.85000   42.145099920982474   10.163036948498750   72.341296037379237
  153    1  4.60345  4.85000   18.458217993503819   17.170648962100660   94.863085747496569
  154    1  4.60345  4.85000   40.667568189953556   14.987780875359132   75.503756893149728
  155    1  4.60345  4.85000    5.045178259884327   46.660257384372592   69.278954903497237
  156    1  4.60345  4.85000   22.850054883486195    3.492824694635226   48.586402294277100
  157    1  4.60345  4.85000   27.438437514661409   27.952383948465496   46.830297592237422
  158    1  4.60345  4.85000   21.782530134453317   22.748681493369801   48.446874174145954
  159    1  4.60345  4.85000   34.040918124461967   22.846570953508721   12.514044325210431
  160    1  4.60345  4.85000   13.352070250101452   13.832464710185757   13.477256754687460
  161    1  4.60345  4.85000   23.208138954987504   18.937491809500102   25.070006764426250
  162    1  4.60345  4.85000    4.373270241151562    6.712485026988133   28.016144205221799
  163    1  4.60345  4.85000   36.784120023597048    2.520952987792019   79.027955266097464
  164    1  4.60345  4.85000   25.653094437077229   33.866046551536520   26.167655613565465
  165    1  4.60345  4.85000   22.901374467753211   39.102251751938141   79.359356155108287
  166    1  4.60345  4.85000    5.472201031671407   23.327317791485807    8.948190640660922
  167    1  4.60345  4.85000   15.135957660662331   27.334095511517305   32.955125347046113
  168    1  4.60345  4.85000   11.504783069893215   20.606266847433414   69.569439107221186
  169    1  4.60345  4.85000    5.104349380650351   47.649159706595761   23.855377286330622
  170    1  4.60345  4.85000   20.246709518695329   20.457703727621457   18.291811087401197
  171    1  4.60345  4.85000   42.857502272377509   22.333832283021845   64.855041663408016
  172    1  4.60345  4.85000   12.775798976237382   40.358380916272075   32.099638061666944
  173    1  4.60345  4.85000   28.567995132399034   36.190286313625165   52.860890547906166
  174    1  4.60345  4.85000   35.112534949620652   44.483601849106755   42.236877480420219
  175    1  4.60345  4.85000   21.370583902538350   38.582810366225296   58.293542713010460
  176    1  4.60345  4.85000   10.076482973327547   29.215234596653112   66.822475389606907
  177    1  4.60345  4.85000    7.839812393659194   45.357836452128325   31.541797010961101
  178    1  4.60345  4.85000   26.845270128541792   46.095114081328347   42.964790391241330
  179    1  4.60345  4.85000   46.876450037273116   33.801547687728963   37.218479199021125
  180    1  4.60345  4.85000   35.730803347248404   35.811233166871013    7.525904373643543
  181    1  4.60345  4.85000   30.487424616112044   24.768642594408046   69.821677179280272
  182    1  4.60345  4.85000   29.177625160391170    7.317119134043637   89.325661173241670
  183    1  4.60345  4.85000   30.037467338543838   42.728110686126740   24.876053553541322
  184    1  4.60345  4.85000   43.708021676006652    2.916886635546406   73.151020919881404
  185    1  4.60345  4.85000   18.223585623804173   18.598582618400428   38.490191985545657
  186    1  4.60345  4.85000   39.642311157673767   47.577200902441618   18.249283393964824
  187    1  4.50000  4.85000   35.699330456931335   28.491827657215801   60.194018441530702
  188    1  4.50000  4.85000   25.523372085637085    5.131094600259246    3.157110873349537
  189    1  4.50000  4.85000   17.439879061378576   45.123035295388270   31.510812012232797
  190    1  4.50000  4.85000   25.161224834644070    2.346597551987961   74.839887300637386
  191    1  4.50000  4.85000   45.917212944424918    5.839422838479559   60.591165191838677
  192    1  4.50000  4.85000   46.883841611027158   34.697307462170691   22.980650629807009
  193    1  4.50000  4.85000   31.247522752258664   46.138255103391543   30.703220628483802
  194    1  4.50000  4.85000    2.402557702687661   22.002384700463761   62.857926934123796
  195    1  4.50000  4.85000   17.792234947585321   11.707387171321827   55.239080215328414
  196    1  4.50000  4.85000   19.846834615389920   43.329054590515014   85.719330426082593
  197    1  4.50000  4.85000    4.079560224805954   29.630515122541141   33.467901645843554
  198    1  4.50000  4.85000   27.081711902221571   27.780420488197997   30.891632674392682
  199    1  4.50000  4.85000   45.212913247170775   27.255197923761148    5.502521789815383
  200    1  4.50000  4.85000   11.004452581474624   35.916497382339905   60.678331562259253
  201    1  4.50000  4.85000   11.851007742045958   35.297879622037378   87.657765842081233
  202    1  4.50000  4.85000   45.183108763926555   14.255381503611602   37.690235591419061
  203    1  4.50000  4.85000    8.758483749250489   11.852926135552273   26.684466171827715
  204    1  4.50000  4.85000   27.524143179248174    5.797842904581353   37.972682553411353
  205    1  4.50000  4.85000   19.477928006109018   24.358267657380267   79.475524760670353
  206    1  4.50000  4.85000   23.213181923240960   25.032679720275731   40.044252801805364
  207    1  4.50000  4.85000   16.665003853118982   34.108958144944850    4.644294357415671
  208    1  4.50000  4.85000   42.122503809579207   18.222742898679400   24.262767257895195
  209    1  4.50000  4.85000   40.707789259747074    6.588652834013227   81.180549865195403
  210    1  4.50000  4.85000   25.838194190346105   11.302203358260744   56.022605981903205
  211    1  4.50000  4.85000   21.796465934875044    7.563590689432568   91.415091748737993
  212    1  4.50000  4.85000   30.038093665549397   33.596336999331797   76.490356976649423
  213    1  4.50000  4.85000    7.232812864411032   15.469569943046052   29.251028099482497
  214    1  4.50000  4.85000   14.897640647404746   29.204225925309615   81.479525908048217
  215    1  4.50000  4.85000   31.469010025364444   29.968089108607689   11.557214897337278
  216    1  4.50000  4.85000   37.699883286537322   34.026605682489766   51.057069555674559
  217    1  4.50000  4.85000   37.339742783080936   47.654883220485168   47.831065784508922
  218    1  4.50000  4.85000    9.243528718027044   24.003455350452093   75.354647530892123
  219    1  4.50000  4.85000   12.800907943853399   30.568024849129774    4.849765523814423
  220    1  4.50000  4.85000   32.511093112560772   43.428691736535903   59.670502161609406
  221    1  4.50000  4.85000   39.964209626173790   33.723610334841254   87.926358081558675
  222    1  4.50000  4.85000   39.212332047070703   47.223865889374395   65.266237559872707
  223    1  4.50000  4.85000    3.969320973977220   30.380880436879544   80.459272972594135
  224    1  4.50000  4.85000   22.293437178360357   43.696326304399015   64.500170644274476
  225    1  4.50000  4.85000    6.932721851612861   13.575053975087254   34.655876162425656
  226    1  4.50000  4.85000   24.104245994176217   31.241465052538707   30.820973345377364
  227    1  4.50000  4.85000    7.254339940631226   16.339447209061426   67.953424119649938
  228    1  4.50000  4.85000   30.923102444064551   24.460554841906024   16.152749109360620
  229    1  4.50000  4.85000   38.817161616409031   30.875266018090993   34.817293708899669
  230    1  4.50000  4.85000   35.803417030197949   16.060743977808144   46.254464849386586
  231    1  4.50000  4.85000   19.967264652530897   28.929871423791727   25.756424624484719
  232    1  4.50000  4.85000   15.878596959972500   26.713649134588785   47.413543901028703
  233    1  4.50000  4.85000   26.775306691915482   40.011649492762977   46.726039011168204
  234    1  4.50000  4.85000   42.136366019352877   32.671210118015480    2.386084548032297
  235    1  4.50000  4.85000   43.432782172351708   47.220509963629887   35.782211954421754
  236    1  4.50000  4.85000   38.492119769276947    5.479034347400647   32.907252341800586
  237    1  4.50000  4.85000   14.870435528886260   36.968946833160985   93.856488271802107
  238    1  4.50000  4.85000   17.452620442676857   20.475090056249606   53.692470705630889
  239    1  4.50000  4.85000    4.846414041786901   18.600150053913399   58.677884667497217
  240    1  4.50000  4.85000   37.798819301980224   45.647909504014521   25.469560519690351
  241    1  4.50000  4.85000   20.620324728928892   20.861326673650193   67.790065238086299
  242    1  4.50000  4.85000   29.556309909928924   17.516582157543411    7.686474420636960
  243    1  4.50000  4.85000   29.223850110206424    2.400998238525698    3.336609268648836
  244    1  4.50000  4.85000   14.733173110781623    2.777325664441131   16.046310715124733
  245    1  4.50000  4.85000   31.875844356780984   29.729049907922157    6.511364862146957
  246    1  4.50000  4.85000   31.404654765195168   29.854549048454899   34.921697894479031
  247    1  4.50000  4.85000   10.183491772703777   20.880579586752447   80.647675570993940
  248    1  4.50000  4.85000   39.656857852886809   19.302665455606999   67.054989161962069
  249    1  4.50000  4.85000   44.760028142370444   12.941734995229604   64.936318524133554
  250    1  4.50000  4.85000   30.304444926239395   38.701716602193002   18.703145963496191
  251    1  4.50000  4.85000    4.613966350830660   35.983838803806975   32.417876557341508
  252    1  4.50000  4.85000   21.513501858964172   33.891549740623148   75.845720765486874
  253    1  4.50000  4.85000   43.363506992236545    9.144422607474118   10.786206090928728
  254    1  4.50000  4.85000   12.467133757514720   42.740391757682715   27.832078522797527
  255    1  4.50000  4.85000   42.255398881732425   42.758232180528665   84.613506478238733
  256    1  4.50000  4.85000   32.257630294558126   44.622147928694247   67.509684381426155
  257    1  4.50000  4.85000    7.495540732346904   46.797608606713339   37.234867276697862
  258    1  4.50000  4.85000   17.428932354696116   42.024253288664447   16.630327617568213
  259    1  4.50000  4.85000   23.095167919594925    8.419695801139262   87.044260312946534
  260    1  4.50000  4.85000    5.151325196411557   22.624369320611681   81.683300211340580
  261    1  4.50000  4.85000   46.634315662137766   45.473416789594388   38.634736892090622
  262    1  4.50000  4.85000   27.269635574708133   33.943004782932611   11.632649437111873
  263    1  4.50000  4.85000   16.003550101387535   19.836881960040298   14.720367206720569
  264    1  4.50000  4.85000   14.651806548559886   31.559681569310733   87.015277172327899
  265    1  4.50000  4.85000   20.909477550650930   13.336734489174122   70.692290327812799
  266    1  4.50000  4.85000   11.381704640527031   38.317431655873023   80.964396743976579
  267    1  4.50000  4.85000   37.910982897290957   37.692108172948387   31.259999033765709
  268    1  4.50000  4.85000   38.817858715418048   12.792337665017191   60.266277958709622
  269    1  4.50000  4.85000   46.081173237293910   29.239830624143220   67.530806808840708
  270    1  4.50000  4.85000   38.985234880092406   47.499024621971294   87.838575683069905
  271    1  4.50000  4.85000   39.361459028789668   35.020750753976273   44.795665497951966
  272    1  4.50000  4.85000   33.745436153395673   19.056078259335067   50.246426952855899
  273    1  4.50000  4.85000    8.271938832553870   19.211085133180298   54.217268662726063
  274    1  4.50000  4.85000   27.477530543037417   40.297429100199366   77.225068730432696
  275    1  4.50000  4.85000   44.956311015461949   44.506920804237602    2.641396655803179
  276    1  4.50000  4.85000   41.809520291716048   21.899747686131636   91.734701757149722
  277    1  4.50000  4.85000   13.318664196752792   46.620204834435441   64.471727759227122
  278    1  4.50000  4.85000   45.739141986716277   24.229997745173623   17.308691269572037
  279    1  4.50000  4.85000   19.379004030471442   35.721609698923054   12.210274937413445
  280    1  4.50000  4.85000    3.242919394695675    8.658314171501086   88.189938791213265
  281    1  4.50000  4.85000   31.016243513288870    9.063720941138822   58.494724914402866
  282    1  4.50000  4.85000    3.419387950195801   44.236371251775559   34.774751738994148
  283    1  4.50000  4.85000   31.455896518442323    3.290848778631867   37.530723066961436
  284    1  4.50000  4.85000   18.547496683754296   25.381833519428380   89.601686786698266
  285    1  4.50000  4.85000   32.878729089528974   21.748057744503157   91.745633877764874
  286    1  4.50000  4.85000   43.226257153348534   25.771374839457724   68.750300725562070
  287    1  4.50000  4.85000   28.376351130245297   20.986203909101388   24.737744148324300
  288    1  4.50000  4.85000   45.695280296416257   15.498235848161393   92.139002678666202
  289    1  4.50000  4.85000   30.306599563342417   31.429381545391127   89.786871556114860
  290    1  4.50000  4.85000   24.411365138925646    2.856660092196415   27.106591879602345
  291    1  4.50000  4.85000   30.127823576790888   16.551010940380976   93.843231240046805
  292    1  4.50000  4.85000   16.069984925188550   38.698246164380294   42.500200255276980
  293    1  4.50000  4.85000   12.462352364359539   21.661595166348508   30.392560701190249
  294    1  4.50000  4.85000   31.444853660180474   36.940527430591374   80.265866362067612
  295    1  4.50000  4.85000   23.691267846921264   11.314328120888115   96.111839260872770
  296    1  4.50000  4.85000   32.791861704097315   31.308141893530951   55.159406419921723
  297    1  4.50000  4.85000   30.500032694507357   35.688915402043179   85.496564347843176
  298    1  4.50000  4.85000   14.416931414854837    3.214377654888858   50.726763195823182
  299    1  4.50000  4.85000    5.183321827307703   36.405425919692249   67.729737460449357
  300    1  4.50000  4.85000   22.733926778270956   31.345413916145276   10.327173125489907
  301    1  4.50000  4.85000   38.903376070920167   28.831357414818083   17.472893946170160
  302    1  4.50000  4.85000   12.317312265509264   26.879871239911513   27.704072336778175
  303    1  4.50000  4.85000   34.974428491430203   42.395180753462292   32.989429142376522
  304    1  4.50000  4.85000   47.599132722986781   30.120501691803906   16.854746196679621
  305    1  4.50000  4.85000    9.612147588730586   17.593693201325532   12.384395965699484
  306    1  4.50000  4.85000   15.204272939188330   30.951340895438676   73.729469781914574
  307    1  4.50000  4.85000   47.506143129512552   39.687770340214271   30.904705829401440
  308    1  4.50000  4.85000   11.201700316628404    5.577287001733253   13.746539441581110
  309    1  4.50000  4.85000   35.220129686227693   12.762944609671647   33.135015589970948
  310    1  4.50000  4.85000    6.962159221115775   31.859856441957184   77.187526093022115
  311    1  4.50000  4.85000   22.625685960740942   15.203603179702673   78.604417308195863
  312    1  4.50000  4.85000   17.787205578402578   10.976675628047957   15.029338648444163
  313    1  4.50000  4.85000   19.798450692045193   27.338758882904898   10.546428408465840
  314    1  4.50000  4.85000    9.824828258259064   26.377553049495564   84.303996590856059
  315    1  4.50000  4.85000   10.917168902073872   19.205046289912797   23.281358131502550
  316    1  4.50000  4.85000   17.101463085659166   15.655079073383288   78.354728498121787
  317    1  4.50000  4.85000   28.334544159061103   31.183190697009586    3.658180533471076
  318    1  4.50000  4.85000   19.776473164751572   26.352878698075546   50.643492463619616
  319    1  4.50000  4.85000   44.867852239349574   18.509616756316209   66.555999599761194
  320    1  4.50000  4.85000   32.708670870161512   40.060987885077616   95.972710249284219
  321    1  4.50000  4.85000   15.794414737396112    7.366782849143350   39.839913030663105
  322    1  4.50000  4.85000   17.455457634526311   37.263054010392985   52.069705341024957
  323    1  4.50000  4.85000   22.858757795902939    8.345740897988620   19.620327387757943