LAMMPS data file via write_data, version Version LIGGGHTS-PUBLIC 3.8.0, compiled 2025-06-30-18:48:28 by cunezben, git commit 3d5c00f20519e6bb6eb6756f51f1ad36564e649d, timestep = 4275000

6575 atoms
6 atom types

-1.0000000000000000e+01 1.0000000000000000e+01 xlo xhi
-1.0000000000000000e+01 1.0000000000000000e+01 ylo yhi
0.0000000000000000e+00 7.7000000000000000e+01 zlo zhi

Atoms

1 2 1.0000000000000000e+00 8.0000000000000000e+00 -9.5000000000000000e+00 -8.5000000000000000e+00 4.0424999999999436e+01 0 0 0
2 2 1.0000000000000000e+00 8.0000000000000000e+00 -8.5000000000000000e+00 -9.5000000000000000e+00 4.0424999999999436e+01 0 0 0
3 2 1.0000000000000000e+00 8.0000000000000000e+00 -9.5000000000000000e+00 -9.5000000000000000e+00 4.0424999999999436e+01 0 0 0
4 2 1.0000000000000000e+00 8.0000000000000000e+00 -8.5000000000000000e+00 -8.5000000000000000e+00 4.0424999999999436e+01 0 0 0
5 2 1.0000000000000000e+00 8.0000000000000000e+00 -6.5000000000000000e+00 -8.5000000000000000e+00 4.0424999999999436e+01 0 0 0
6 2 1.0000000000000000e+00 8.0000000000000000e+00 -7.5000000000000000e+00 -8.5000000000000000e+00 4.0424999999999436e+01 0 0 0
7 2 1.0000000000000000e+00 8.0000000000000000e+00 -6.5000000000000000e+00 -9.5000000000000000e+00 4.0424999999999436e+01 0 0 0
8 2 1.0000000000000000e+00 8.0000000000000000e+00 -7.5000000000000000e+00 -9.5000000000000000e+00 4.0424999999999436e+01 0 0 0
9 2 1.0000000000000000e+00 8.0000000000000000e+00 -4.5000000000000000e+00 -8.5000000000000000e+00 4.0424999999999436e+01 0 0 0
10 2 1.0000000000000000e+00 8.0000000000000000e+00 -5.5000000000000000e+00 -8.5000000000000000e+00 4.0424999999999436e+01 0 0 0
11 2 1.0000000000000000e+00 8.0000000000000000e+00 -4.5000000000000000e+00 -9.5000000000000000e+00 4.0424999999999436e+01 0 0 0
12 2 1.0000000000000000e+00 8.0000000000000000e+00 -5.5000000000000000e+00 -9.5000000000000000e+00 4.0424999999999436e+01 0 0 0
13 2 1.0000000000000000e+00 8.0000000000000000e+00 -2.5000000000000000e+00 -8.5000000000000000e+00 4.0424999999999436e+01 0 0 0
14 2 1.0000000000000000e+00 8.0000000000000000e+00 -3.5000000000000000e+00 -8.5000000000000000e+00 4.0424999999999436e+01 0 0 0
15 2 1.0000000000000000e+00 8.0000000000000000e+00 -2.5000000000000000e+00 -9.5000000000000000e+00 4.0424999999999436e+01 0 0 0
16 2 1.0000000000000000e+00 8.0000000000000000e+00 -3.5000000000000000e+00 -9.5000000000000000e+00 4.0424999999999436e+01 0 0 0
17 2 1.0000000000000000e+00 8.0000000000000000e+00 -5.0000000000000000e-01 -8.5000000000000000e+00 4.0424999999999436e+01 0 0 0
18 2 1.0000000000000000e+00 8.0000000000000000e+00 -1.5000000000000000e+00 -8.5000000000000000e+00 4.0424999999999436e+01 0 0 0
19 2 1.0000000000000000e+00 8.0000000000000000e+00 -5.0000000000000000e-01 -9.5000000000000000e+00 4.0424999999999436e+01 0 0 0
20 2 1.0000000000000000e+00 8.0000000000000000e+00 -1.5000000000000000e+00 -9.5000000000000000e+00 4.0424999999999436e+01 0 0 0
21 2 1.0000000000000000e+00 8.0000000000000000e+00 1.5000000000000000e+00 -8.5000000000000000e+00 4.0424999999999436e+01 0 0 0
22 2 1.0000000000000000e+00 8.0000000000000000e+00 5.0000000000000000e-01 -8.5000000000000000e+00 4.0424999999999436e+01 0 0 0
23 2 1.0000000000000000e+00 8.0000000000000000e+00 1.5000000000000000e+00 -9.5000000000000000e+00 4.0424999999999436e+01 0 0 0
24 2 1.0000000000000000e+00 8.0000000000000000e+00 5.0000000000000000e-01 -9.5000000000000000e+00 4.0424999999999436e+01 0 0 0
25 2 1.0000000000000000e+00 8.0000000000000000e+00 3.5000000000000000e+00 -8.5000000000000000e+00 4.0424999999999436e+01 0 0 0
26 2 1.0000000000000000e+00 8.0000000000000000e+00 2.5000000000000000e+00 -8.5000000000000000e+00 4.0424999999999436e+01 0 0 0
27 2 1.0000000000000000e+00 8.0000000000000000e+00 3.5000000000000000e+00 -9.5000000000000000e+00 4.0424999999999436e+01 0 0 0
28 2 1.0000000000000000e+00 8.0000000000000000e+00 2.5000000000000000e+00 -9.5000000000000000e+00 4.0424999999999436e+01 0 0 0
29 2 1.0000000000000000e+00 8.0000000000000000e+00 5.5000000000000000e+00 -8.5000000000000000e+00 4.0424999999999436e+01 0 0 0
30 2 1.0000000000000000e+00 8.0000000000000000e+00 4.5000000000000000e+00 -8.5000000000000000e+00 4.0424999999999436e+01 0 0 0
31 2 1.0000000000000000e+00 8.0000000000000000e+00 5.5000000000000000e+00 -9.5000000000000000e+00 4.0424999999999436e+01 0 0 0
32 2 1.0000000000000000e+00 8.0000000000000000e+00 4.5000000000000000e+00 -9.5000000000000000e+00 4.0424999999999436e+01 0 0 0
33 2 1.0000000000000000e+00 8.0000000000000000e+00 7.5000000000000000e+00 -8.5000000000000000e+00 4.0424999999999436e+01 0 0 0
34 2 1.0000000000000000e+00 8.0000000000000000e+00 6.5000000000000000e+00 -8.5000000000000000e+00 4.0424999999999436e+01 0 0 0
35 2 1.0000000000000000e+00 8.0000000000000000e+00 7.5000000000000000e+00 -9.5000000000000000e+00 4.0424999999999436e+01 0 0 0
36 2 1.0000000000000000e+00 8.0000000000000000e+00 6.5000000000000000e+00 -9.5000000000000000e+00 4.0424999999999436e+01 0 0 0
37 2 1.0000000000000000e+00 8.0000000000000000e+00 9.5000000000000000e+00 -8.5000000000000000e+00 4.0424999999999436e+01 0 0 0
38 2 1.0000000000000000e+00 8.0000000000000000e+00 8.5000000000000000e+00 -8.5000000000000000e+00 4.0424999999999436e+01 0 0 0
39 2 1.0000000000000000e+00 8.0000000000000000e+00 9.5000000000000000e+00 -9.5000000000000000e+00 4.0424999999999436e+01 0 0 0
40 2 1.0000000000000000e+00 8.0000000000000000e+00 8.5000000000000000e+00 -9.5000000000000000e+00 4.0424999999999436e+01 0 0 0
41 2 1.0000000000000000e+00 8.0000000000000000e+00 -8.5000000000000000e+00 -6.5000000000000000e+00 4.0424999999999436e+01 0 0 0
42 2 1.0000000000000000e+00 8.0000000000000000e+00 -9.5000000000000000e+00 -6.5000000000000000e+00 4.0424999999999436e+01 0 0 0
43 2 1.0000000000000000e+00 8.0000000000000000e+00 -8.5000000000000000e+00 -7.5000000000000000e+00 4.0424999999999436e+01 0 0 0
44 2 1.0000000000000000e+00 8.0000000000000000e+00 -9.5000000000000000e+00 -7.5000000000000000e+00 4.0424999999999436e+01 0 0 0
45 2 1.0000000000000000e+00 8.0000000000000000e+00 -6.5000000000000000e+00 -6.5000000000000000e+00 4.0424999999999436e+01 0 0 0
46 2 1.0000000000000000e+00 8.0000000000000000e+00 -7.5000000000000000e+00 -6.5000000000000000e+00 4.0424999999999436e+01 0 0 0
47 2 1.0000000000000000e+00 8.0000000000000000e+00 -6.5000000000000000e+00 -7.5000000000000000e+00 4.0424999999999436e+01 0 0 0
48 2 1.0000000000000000e+00 8.0000000000000000e+00 -7.5000000000000000e+00 -7.5000000000000000e+00 4.0424999999999436e+01 0 0 0
49 2 1.0000000000000000e+00 8.0000000000000000e+00 -4.5000000000000000e+00 -6.5000000000000000e+00 4.0424999999999436e+01 0 0 0
50 2 1.0000000000000000e+00 8.0000000000000000e+00 -5.5000000000000000e+00 -6.5000000000000000e+00 4.0424999999999436e+01 0 0 0
51 2 1.0000000000000000e+00 8.0000000000000000e+00 -4.5000000000000000e+00 -7.5000000000000000e+00 4.0424999999999436e+01 0 0 0
52 2 1.0000000000000000e+00 8.0000000000000000e+00 -5.5000000000000000e+00 -7.5000000000000000e+00 4.0424999999999436e+01 0 0 0
53 2 1.0000000000000000e+00 8.0000000000000000e+00 -2.5000000000000000e+00 -6.5000000000000000e+00 4.0424999999999436e+01 0 0 0
54 2 1.0000000000000000e+00 8.0000000000000000e+00 -3.5000000000000000e+00 -6.5000000000000000e+00 4.0424999999999436e+01 0 0 0
55 2 1.0000000000000000e+00 8.0000000000000000e+00 -2.5000000000000000e+00 -7.5000000000000000e+00 4.0424999999999436e+01 0 0 0
56 2 1.0000000000000000e+00 8.0000000000000000e+00 -3.5000000000000000e+00 -7.5000000000000000e+00 4.0424999999999436e+01 0 0 0
57 2 1.0000000000000000e+00 8.0000000000000000e+00 -5.0000000000000000e-01 -6.5000000000000000e+00 4.0424999999999436e+01 0 0 0
58 2 1.0000000000000000e+00 8.0000000000000000e+00 -1.5000000000000000e+00 -6.5000000000000000e+00 4.0424999999999436e+01 0 0 0
59 2 1.0000000000000000e+00 8.0000000000000000e+00 -5.0000000000000000e-01 -7.5000000000000000e+00 4.0424999999999436e+01 0 0 0
60 2 1.0000000000000000e+00 8.0000000000000000e+00 -1.5000000000000000e+00 -7.5000000000000000e+00 4.0424999999999436e+01 0 0 0
61 2 1.0000000000000000e+00 8.0000000000000000e+00 1.5000000000000000e+00 -6.5000000000000000e+00 4.0424999999999436e+01 0 0 0
62 2 1.0000000000000000e+00 8.0000000000000000e+00 5.0000000000000000e-01 -6.5000000000000000e+00 4.0424999999999436e+01 0 0 0
63 2 1.0000000000000000e+00 8.0000000000000000e+00 1.5000000000000000e+00 -7.5000000000000000e+00 4.0424999999999436e+01 0 0 0
64 2 1.0000000000000000e+00 8.0000000000000000e+00 5.0000000000000000e-01 -7.5000000000000000e+00 4.0424999999999436e+01 0 0 0
65 2 1.0000000000000000e+00 8.0000000000000000e+00 3.5000000000000000e+00 -6.5000000000000000e+00 4.0424999999999436e+01 0 0 0
66 2 1.0000000000000000e+00 8.0000000000000000e+00 2.5000000000000000e+00 -6.5000000000000000e+00 4.0424999999999436e+01 0 0 0
67 2 1.0000000000000000e+00 8.0000000000000000e+00 3.5000000000000000e+00 -7.5000000000000000e+00 4.0424999999999436e+01 0 0 0
68 2 1.0000000000000000e+00 8.0000000000000000e+00 2.5000000000000000e+00 -7.5000000000000000e+00 4.0424999999999436e+01 0 0 0
69 2 1.0000000000000000e+00 8.0000000000000000e+00 5.5000000000000000e+00 -6.5000000000000000e+00 4.0424999999999436e+01 0 0 0
70 2 1.0000000000000000e+00 8.0000000000000000e+00 4.5000000000000000e+00 -6.5000000000000000e+00 4.0424999999999436e+01 0 0 0
71 2 1.0000000000000000e+00 8.0000000000000000e+00 5.5000000000000000e+00 -7.5000000000000000e+00 4.0424999999999436e+01 0 0 0
72 2 1.0000000000000000e+00 8.0000000000000000e+00 4.5000000000000000e+00 -7.5000000000000000e+00 4.0424999999999436e+01 0 0 0
73 2 1.0000000000000000e+00 8.0000000000000000e+00 7.5000000000000000e+00 -6.5000000000000000e+00 4.0424999999999436e+01 0 0 0
74 2 1.0000000000000000e+00 8.0000000000000000e+00 6.5000000000000000e+00 -6.5000000000000000e+00 4.0424999999999436e+01 0 0 0
75 2 1.0000000000000000e+00 8.0000000000000000e+00 7.5000000000000000e+00 -7.5000000000000000e+00 4.0424999999999436e+01 0 0 0
76 2 1.0000000000000000e+00 8.0000000000000000e+00 6.5000000000000000e+00 -7.5000000000000000e+00 4.0424999999999436e+01 0 0 0
77 2 1.0000000000000000e+00 8.0000000000000000e+00 9.5000000000000000e+00 -6.5000000000000000e+00 4.0424999999999436e+01 0 0 0
78 2 1.0000000000000000e+00 8.0000000000000000e+00 8.5000000000000000e+00 -6.5000000000000000e+00 4.0424999999999436e+01 0 0 0
79 2 1.0000000000000000e+00 8.0000000000000000e+00 9.5000000000000000e+00 -7.5000000000000000e+00 4.0424999999999436e+01 0 0 0
80 2 1.0000000000000000e+00 8.0000000000000000e+00 8.5000000000000000e+00 -7.5000000000000000e+00 4.0424999999999436e+01 0 0 0
81 2 1.0000000000000000e+00 8.0000000000000000e+00 -8.5000000000000000e+00 -4.5000000000000000e+00 4.0424999999999436e+01 0 0 0
82 2 1.0000000000000000e+00 8.0000000000000000e+00 -9.5000000000000000e+00 -4.5000000000000000e+00 4.0424999999999436e+01 0 0 0
83 2 1.0000000000000000e+00 8.0000000000000000e+00 -8.5000000000000000e+00 -5.5000000000000000e+00 4.0424999999999436e+01 0 0 0
84 2 1.0000000000000000e+00 8.0000000000000000e+00 -9.5000000000000000e+00 -5.5000000000000000e+00 4.0424999999999436e+01 0 0 0
85 2 1.0000000000000000e+00 8.0000000000000000e+00 -6.5000000000000000e+00 -4.5000000000000000e+00 4.0424999999999436e+01 0 0 0
86 2 1.0000000000000000e+00 8.0000000000000000e+00 -7.5000000000000000e+00 -4.5000000000000000e+00 4.0424999999999436e+01 0 0 0
87 2 1.0000000000000000e+00 8.0000000000000000e+00 -6.5000000000000000e+00 -5.5000000000000000e+00 4.0424999999999436e+01 0 0 0
88 2 1.0000000000000000e+00 8.0000000000000000e+00 -7.5000000000000000e+00 -5.5000000000000000e+00 4.0424999999999436e+01 0 0 0
89 2 1.0000000000000000e+00 8.0000000000000000e+00 -4.5000000000000000e+00 -4.5000000000000000e+00 4.0424999999999436e+01 0 0 0
90 2 1.0000000000000000e+00 8.0000000000000000e+00 -5.5000000000000000e+00 -4.5000000000000000e+00 4.0424999999999436e+01 0 0 0
91 2 1.0000000000000000e+00 8.0000000000000000e+00 -4.5000000000000000e+00 -5.5000000000000000e+00 4.0424999999999436e+01 0 0 0
92 2 1.0000000000000000e+00 8.0000000000000000e+00 -5.5000000000000000e+00 -5.5000000000000000e+00 4.0424999999999436e+01 0 0 0
93 2 1.0000000000000000e+00 8.0000000000000000e+00 -2.5000000000000000e+00 -4.5000000000000000e+00 4.0424999999999436e+01 0 0 0
94 2 1.0000000000000000e+00 8.0000000000000000e+00 -3.5000000000000000e+00 -4.5000000000000000e+00 4.0424999999999436e+01 0 0 0
95 2 1.0000000000000000e+00 8.0000000000000000e+00 -2.5000000000000000e+00 -5.5000000000000000e+00 4.0424999999999436e+01 0 0 0
96 2 1.0000000000000000e+00 8.0000000000000000e+00 -3.5000000000000000e+00 -5.5000000000000000e+00 4.0424999999999436e+01 0 0 0
97 2 1.0000000000000000e+00 8.0000000000000000e+00 -5.0000000000000000e-01 -4.5000000000000000e+00 4.0424999999999436e+01 0 0 0
98 2 1.0000000000000000e+00 8.0000000000000000e+00 -1.5000000000000000e+00 -4.5000000000000000e+00 4.0424999999999436e+01 0 0 0
99 2 1.0000000000000000e+00 8.0000000000000000e+00 -5.0000000000000000e-01 -5.5000000000000000e+00 4.0424999999999436e+01 0 0 0
100 2 1.0000000000000000e+00 8.0000000000000000e+00 -1.5000000000000000e+00 -5.5000000000000000e+00 4.0424999999999436e+01 0 0 0
101 2 1.0000000000000000e+00 8.0000000000000000e+00 1.5000000000000000e+00 -4.5000000000000000e+00 4.0424999999999436e+01 0 0 0
102 2 1.0000000000000000e+00 8.0000000000000000e+00 5.0000000000000000e-01 -4.5000000000000000e+00 4.0424999999999436e+01 0 0 0
103 2 1.0000000000000000e+00 8.0000000000000000e+00 1.5000000000000000e+00 -5.5000000000000000e+00 4.0424999999999436e+01 0 0 0
104 2 1.0000000000000000e+00 8.0000000000000000e+00 5.0000000000000000e-01 -5.5000000000000000e+00 4.0424999999999436e+01 0 0 0
105 2 1.0000000000000000e+00 8.0000000000000000e+00 3.5000000000000000e+00 -4.5000000000000000e+00 4.0424999999999436e+01 0 0 0
106 2 1.0000000000000000e+00 8.0000000000000000e+00 2.5000000000000000e+00 -4.5000000000000000e+00 4.0424999999999436e+01 0 0 0
107 2 1.0000000000000000e+00 8.0000000000000000e+00 3.5000000000000000e+00 -5.5000000000000000e+00 4.0424999999999436e+01 0 0 0
108 2 1.0000000000000000e+00 8.0000000000000000e+00 2.5000000000000000e+00 -5.5000000000000000e+00 4.0424999999999436e+01 0 0 0
109 2 1.0000000000000000e+00 8.0000000000000000e+00 5.5000000000000000e+00 -4.5000000000000000e+00 4.0424999999999436e+01 0 0 0
110 2 1.0000000000000000e+00 8.0000000000000000e+00 4.5000000000000000e+00 -4.5000000000000000e+00 4.0424999999999436e+01 0 0 0
111 2 1.0000000000000000e+00 8.0000000000000000e+00 5.5000000000000000e+00 -5.5000000000000000e+00 4.0424999999999436e+01 0 0 0
112 2 1.0000000000000000e+00 8.0000000000000000e+00 4.5000000000000000e+00 -5.5000000000000000e+00 4.0424999999999436e+01 0 0 0
113 2 1.0000000000000000e+00 8.0000000000000000e+00 7.5000000000000000e+00 -4.5000000000000000e+00 4.0424999999999436e+01 0 0 0
114 2 1.0000000000000000e+00 8.0000000000000000e+00 6.5000000000000000e+00 -4.5000000000000000e+00 4.0424999999999436e+01 0 0 0
115 2 1.0000000000000000e+00 8.0000000000000000e+00 7.5000000000000000e+00 -5.5000000000000000e+00 4.0424999999999436e+01 0 0 0
116 2 1.0000000000000000e+00 8.0000000000000000e+00 6.5000000000000000e+00 -5.5000000000000000e+00 4.0424999999999436e+01 0 0 0
117 2 1.0000000000000000e+00 8.0000000000000000e+00 9.5000000000000000e+00 -4.5000000000000000e+00 4.0424999999999436e+01 0 0 0
118 2 1.0000000000000000e+00 8.0000000000000000e+00 8.5000000000000000e+00 -4.5000000000000000e+00 4.0424999999999436e+01 0 0 0
119 2 1.0000000000000000e+00 8.0000000000000000e+00 9.5000000000000000e+00 -5.5000000000000000e+00 4.0424999999999436e+01 0 0 0
120 2 1.0000000000000000e+00 8.0000000000000000e+00 8.5000000000000000e+00 -5.5000000000000000e+00 4.0424999999999436e+01 0 0 0
121 2 1.0000000000000000e+00 8.0000000000000000e+00 -8.5000000000000000e+00 -2.5000000000000000e+00 4.0424999999999436e+01 0 0 0
122 2 1.0000000000000000e+00 8.0000000000000000e+00 -9.5000000000000000e+00 -2.5000000000000000e+00 4.0424999999999436e+01 0 0 0
123 2 1.0000000000000000e+00 8.0000000000000000e+00 -8.5000000000000000e+00 -3.5000000000000000e+00 4.0424999999999436e+01 0 0 0
124 2 1.0000000000000000e+00 8.0000000000000000e+00 -9.5000000000000000e+00 -3.5000000000000000e+00 4.0424999999999436e+01 0 0 0
125 2 1.0000000000000000e+00 8.0000000000000000e+00 -6.5000000000000000e+00 -2.5000000000000000e+00 4.0424999999999436e+01 0 0 0
126 2 1.0000000000000000e+00 8.0000000000000000e+00 -7.5000000000000000e+00 -2.5000000000000000e+00 4.0424999999999436e+01 0 0 0
127 2 1.0000000000000000e+00 8.0000000000000000e+00 -6.5000000000000000e+00 -3.5000000000000000e+00 4.0424999999999436e+01 0 0 0
128 2 1.0000000000000000e+00 8.0000000000000000e+00 -7.5000000000000000e+00 -3.5000000000000000e+00 4.0424999999999436e+01 0 0 0
129 2 1.0000000000000000e+00 8.0000000000000000e+00 -4.5000000000000000e+00 -2.5000000000000000e+00 4.0424999999999436e+01 0 0 0
130 2 1.0000000000000000e+00 8.0000000000000000e+00 -5.5000000000000000e+00 -2.5000000000000000e+00 4.0424999999999436e+01 0 0 0
131 2 1.0000000000000000e+00 8.0000000000000000e+00 -4.5000000000000000e+00 -3.5000000000000000e+00 4.0424999999999436e+01 0 0 0
132 2 1.0000000000000000e+00 8.0000000000000000e+00 -5.5000000000000000e+00 -3.5000000000000000e+00 4.0424999999999436e+01 0 0 0
133 2 1.0000000000000000e+00 8.0000000000000000e+00 -2.5000000000000000e+00 -2.5000000000000000e+00 4.0424999999999436e+01 0 0 0
134 2 1.0000000000000000e+00 8.0000000000000000e+00 -3.5000000000000000e+00 -2.5000000000000000e+00 4.0424999999999436e+01 0 0 0
135 2 1.0000000000000000e+00 8.0000000000000000e+00 -2.5000000000000000e+00 -3.5000000000000000e+00 4.0424999999999436e+01 0 0 0
136 2 1.0000000000000000e+00 8.0000000000000000e+00 -3.5000000000000000e+00 -3.5000000000000000e+00 4.0424999999999436e+01 0 0 0
137 2 1.0000000000000000e+00 8.0000000000000000e+00 -5.0000000000000000e-01 -2.5000000000000000e+00 4.0424999999999436e+01 0 0 0
138 2 1.0000000000000000e+00 8.0000000000000000e+00 -1.5000000000000000e+00 -2.5000000000000000e+00 4.0424999999999436e+01 0 0 0
139 2 1.0000000000000000e+00 8.0000000000000000e+00 -5.0000000000000000e-01 -3.5000000000000000e+00 4.0424999999999436e+01 0 0 0
140 2 1.0000000000000000e+00 8.0000000000000000e+00 -1.5000000000000000e+00 -3.5000000000000000e+00 4.0424999999999436e+01 0 0 0
141 2 1.0000000000000000e+00 8.0000000000000000e+00 1.5000000000000000e+00 -2.5000000000000000e+00 4.0424999999999436e+01 0 0 0
142 2 1.0000000000000000e+00 8.0000000000000000e+00 5.0000000000000000e-01 -2.5000000000000000e+00 4.0424999999999436e+01 0 0 0
143 2 1.0000000000000000e+00 8.0000000000000000e+00 1.5000000000000000e+00 -3.5000000000000000e+00 4.0424999999999436e+01 0 0 0
144 2 1.0000000000000000e+00 8.0000000000000000e+00 5.0000000000000000e-01 -3.5000000000000000e+00 4.0424999999999436e+01 0 0 0
145 2 1.0000000000000000e+00 8.0000000000000000e+00 3.5000000000000000e+00 -2.5000000000000000e+00 4.0424999999999436e+01 0 0 0
146 2 1.0000000000000000e+00 8.0000000000000000e+00 2.5000000000000000e+00 -2.5000000000000000e+00 4.0424999999999436e+01 0 0 0
147 2 1.0000000000000000e+00 8.0000000000000000e+00 3.5000000000000000e+00 -3.5000000000000000e+00 4.0424999999999436e+01 0 0 0
148 2 1.0000000000000000e+00 8.0000000000000000e+00 2.5000000000000000e+00 -3.5000000000000000e+00 4.0424999999999436e+01 0 0 0
149 2 1.0000000000000000e+00 8.0000000000000000e+00 5.5000000000000000e+00 -2.5000000000000000e+00 4.0424999999999436e+01 0 0 0
150 2 1.0000000000000000e+00 8.0000000000000000e+00 4.5000000000000000e+00 -2.5000000000000000e+00 4.0424999999999436e+01 0 0 0
151 2 1.0000000000000000e+00 8.0000000000000000e+00 5.5000000000000000e+00 -3.5000000000000000e+00 4.0424999999999436e+01 0 0 0
152 2 1.0000000000000000e+00 8.0000000000000000e+00 4.5000000000000000e+00 -3.5000000000000000e+00 4.0424999999999436e+01 0 0 0
153 2 1.0000000000000000e+00 8.0000000000000000e+00 7.5000000000000000e+00 -2.5000000000000000e+00 4.0424999999999436e+01 0 0 0
154 2 1.0000000000000000e+00 8.0000000000000000e+00 6.5000000000000000e+00 -2.5000000000000000e+00 4.0424999999999436e+01 0 0 0
155 2 1.0000000000000000e+00 8.0000000000000000e+00 7.5000000000000000e+00 -3.5000000000000000e+00 4.0424999999999436e+01 0 0 0
156 2 1.0000000000000000e+00 8.0000000000000000e+00 6.5000000000000000e+00 -3.5000000000000000e+00 4.0424999999999436e+01 0 0 0
157 2 1.0000000000000000e+00 8.0000000000000000e+00 9.5000000000000000e+00 -2.5000000000000000e+00 4.0424999999999436e+01 0 0 0
158 2 1.0000000000000000e+00 8.0000000000000000e+00 8.5000000000000000e+00 -2.5000000000000000e+00 4.0424999999999436e+01 0 0 0
159 2 1.0000000000000000e+00 8.0000000000000000e+00 9.5000000000000000e+00 -3.5000000000000000e+00 4.0424999999999436e+01 0 0 0
160 2 1.0000000000000000e+00 8.0000000000000000e+00 8.5000000000000000e+00 -3.5000000000000000e+00 4.0424999999999436e+01 0 0 0
161 2 1.0000000000000000e+00 8.0000000000000000e+00 -8.5000000000000000e+00 -5.0000000000000000e-01 4.0424999999999436e+01 0 0 0
162 2 1.0000000000000000e+00 8.0000000000000000e+00 -9.5000000000000000e+00 -5.0000000000000000e-01 4.0424999999999436e+01 0 0 0
163 2 1.0000000000000000e+00 8.0000000000000000e+00 -8.5000000000000000e+00 -1.5000000000000000e+00 4.0424999999999436e+01 0 0 0
164 2 1.0000000000000000e+00 8.0000000000000000e+00 -9.5000000000000000e+00 -1.5000000000000000e+00 4.0424999999999436e+01 0 0 0
165 2 1.0000000000000000e+00 8.0000000000000000e+00 -6.5000000000000000e+00 -5.0000000000000000e-01 4.0424999999999436e+01 0 0 0
166 2 1.0000000000000000e+00 8.0000000000000000e+00 -7.5000000000000000e+00 -5.0000000000000000e-01 4.0424999999999436e+01 0 0 0
167 2 1.0000000000000000e+00 8.0000000000000000e+00 -6.5000000000000000e+00 -1.5000000000000000e+00 4.0424999999999436e+01 0 0 0
168 2 1.0000000000000000e+00 8.0000000000000000e+00 -7.5000000000000000e+00 -1.5000000000000000e+00 4.0424999999999436e+01 0 0 0
169 2 1.0000000000000000e+00 8.0000000000000000e+00 -4.5000000000000000e+00 -5.0000000000000000e-01 4.0424999999999436e+01 0 0 0
170 2 1.0000000000000000e+00 8.0000000000000000e+00 -5.5000000000000000e+00 -5.0000000000000000e-01 4.0424999999999436e+01 0 0 0
171 2 1.0000000000000000e+00 8.0000000000000000e+00 -4.5000000000000000e+00 -1.5000000000000000e+00 4.0424999999999436e+01 0 0 0
172 2 1.0000000000000000e+00 8.0000000000000000e+00 -5.5000000000000000e+00 -1.5000000000000000e+00 4.0424999999999436e+01 0 0 0
173 2 1.0000000000000000e+00 8.0000000000000000e+00 -2.5000000000000000e+00 -5.0000000000000000e-01 4.0424999999999436e+01 0 0 0
174 2 1.0000000000000000e+00 8.0000000000000000e+00 -3.5000000000000000e+00 -5.0000000000000000e-01 4.0424999999999436e+01 0 0 0
175 2 1.0000000000000000e+00 8.0000000000000000e+00 -2.5000000000000000e+00 -1.5000000000000000e+00 4.0424999999999436e+01 0 0 0
176 2 1.0000000000000000e+00 8.0000000000000000e+00 -3.5000000000000000e+00 -1.5000000000000000e+00 4.0424999999999436e+01 0 0 0
177 2 1.0000000000000000e+00 8.0000000000000000e+00 -5.0000000000000000e-01 -5.0000000000000000e-01 4.0424999999999436e+01 0 0 0
178 2 1.0000000000000000e+00 8.0000000000000000e+00 -1.5000000000000000e+00 -5.0000000000000000e-01 4.0424999999999436e+01 0 0 0
179 2 1.0000000000000000e+00 8.0000000000000000e+00 -5.0000000000000000e-01 -1.5000000000000000e+00 4.0424999999999436e+01 0 0 0
180 2 1.0000000000000000e+00 8.0000000000000000e+00 -1.5000000000000000e+00 -1.5000000000000000e+00 4.0424999999999436e+01 0 0 0
181 2 1.0000000000000000e+00 8.0000000000000000e+00 1.5000000000000000e+00 -5.0000000000000000e-01 4.0424999999999436e+01 0 0 0
182 2 1.0000000000000000e+00 8.0000000000000000e+00 5.0000000000000000e-01 -5.0000000000000000e-01 4.0424999999999436e+01 0 0 0
183 2 1.0000000000000000e+00 8.0000000000000000e+00 1.5000000000000000e+00 -1.5000000000000000e+00 4.0424999999999436e+01 0 0 0
184 2 1.0000000000000000e+00 8.0000000000000000e+00 5.0000000000000000e-01 -1.5000000000000000e+00 4.0424999999999436e+01 0 0 0
185 2 1.0000000000000000e+00 8.0000000000000000e+00 3.5000000000000000e+00 -5.0000000000000000e-01 4.0424999999999436e+01 0 0 0
186 2 1.0000000000000000e+00 8.0000000000000000e+00 2.5000000000000000e+00 -5.0000000000000000e-01 4.0424999999999436e+01 0 0 0
187 2 1.0000000000000000e+00 8.0000000000000000e+00 3.5000000000000000e+00 -1.5000000000000000e+00 4.0424999999999436e+01 0 0 0
188 2 1.0000000000000000e+00 8.0000000000000000e+00 2.5000000000000000e+00 -1.5000000000000000e+00 4.0424999999999436e+01 0 0 0
189 2 1.0000000000000000e+00 8.0000000000000000e+00 5.5000000000000000e+00 -1.5000000000000000e+00 4.0424999999999436e+01 0 0 0
190 2 1.0000000000000000e+00 8.0000000000000000e+00 4.5000000000000000e+00 -1.5000000000000000e+00 4.0424999999999436e+01 0 0 0
191 2 1.0000000000000000e+00 8.0000000000000000e+00 5.5000000000000000e+00 -5.0000000000000000e-01 4.0424999999999436e+01 0 0 0
192 2 1.0000000000000000e+00 8.0000000000000000e+00 4.5000000000000000e+00 -5.0000000000000000e-01 4.0424999999999436e+01 0 0 0
193 2 1.0000000000000000e+00 8.0000000000000000e+00 7.5000000000000000e+00 -1.5000000000000000e+00 4.0424999999999436e+01 0 0 0
194 2 1.0000000000000000e+00 8.0000000000000000e+00 6.5000000000000000e+00 -1.5000000000000000e+00 4.0424999999999436e+01 0 0 0
195 2 1.0000000000000000e+00 8.0000000000000000e+00 7.5000000000000000e+00 -5.0000000000000000e-01 4.0424999999999436e+01 0 0 0
196 2 1.0000000000000000e+00 8.0000000000000000e+00 6.5000000000000000e+00 -5.0000000000000000e-01 4.0424999999999436e+01 0 0 0
197 2 1.0000000000000000e+00 8.0000000000000000e+00 8.5000000000000000e+00 -1.5000000000000000e+00 4.0424999999999436e+01 0 0 0
198 2 1.0000000000000000e+00 8.0000000000000000e+00 9.5000000000000000e+00 -5.0000000000000000e-01 4.0424999999999436e+01 0 0 0
199 2 1.0000000000000000e+00 8.0000000000000000e+00 8.5000000000000000e+00 -5.0000000000000000e-01 4.0424999999999436e+01 0 0 0
200 2 1.0000000000000000e+00 8.0000000000000000e+00 9.5000000000000000e+00 -1.5000000000000000e+00 4.0424999999999436e+01 0 0 0
201 3 1.1000000000000001e+00 5.0000000000000000e+00 -9.5999786866234569e+00 -9.5340383019136201e+00 4.1181098906616349e+01 0 0 0
202 3 1.3000000000000000e+00 5.0000000000000000e+00 -8.6339439242403113e+00 -9.3718455515229664e+00 4.1285830876874876e+01 0 0 0
203 3 1.5000000000000000e+00 5.0000000000000000e+00 -9.3994894008056775e+00 -8.3782322417624755e+00 4.1405008831248033e+01 0 0 0
204 3 1.5000000000000000e+00 5.0000000000000000e+00 -8.1450997138426047e+00 -8.2661641130180143e+00 4.1398059253746140e+01 0 0 0
205 3 1.5000000000000000e+00 5.0000000000000000e+00 -9.4027140317314810e+00 -9.4159088492304051e+00 4.2073804593093911e+01 0 0 0
206 3 1.1000000000000001e+00 5.0000000000000000e+00 -9.0115711991770358e+00 -8.4640939712393202e+00 4.2419877229301882e+01 0 0 0
207 3 1.5000000000000000e+00 5.0000000000000000e+00 -8.2816745723995417e+00 -9.3647590791996116e+00 4.2690969259802415e+01 0 0 0
208 3 1.7000000000000000e+00 5.0000000000000000e+00 -6.9654108232923146e+00 -9.1118065185726778e+00 4.1407113429116102e+01 0 0 0
209 3 1.3000000000000000e+00 5.0000000000000000e+00 -7.8454945374101959e+00 -9.5205506812520433e+00 4.1784936031938408e+01 0 0 0
210 3 1.3000000000000000e+00 5.0000000000000000e+00 -7.0924268668005057e+00 -9.4401979636182709e+00 4.2646435383212882e+01 0 0 0
211 3 1.8999999999999999e+00 5.0000000000000000e+00 -5.9944184267395739e+00 -8.5058954468954955e+00 4.2498622928198685e+01 0 0 0
212 3 1.3000000000000000e+00 5.0000000000000000e+00 -4.0393296909138989e+00 -9.0869385405864946e+00 4.1185010387126809e+01 0 0 0
213 3 1.5000000000000000e+00 5.0000000000000000e+00 -5.7561293902221227e+00 -9.3462942974962129e+00 4.1361176067172373e+01 0 0 0
214 3 1.7000000000000000e+00 5.0000000000000000e+00 -4.9028152357709374e+00 -8.0990301795924911e+00 4.1422378794280391e+01 0 0 0
215 3 1.5000000000000000e+00 5.0000000000000000e+00 -4.8329868973573227e+00 -9.3879646379136634e+00 4.2016501631566960e+01 0 0 0
216 3 1.5000000000000000e+00 5.0000000000000000e+00 -2.8439939891288510e+00 -9.3224071125296053e+00 4.1351253295069448e+01 0 0 0
217 3 1.7000000000000000e+00 5.0000000000000000e+00 -3.3960671875553796e+00 -8.0176316512766288e+00 4.1628246077476426e+01 0 0 0
218 3 1.5000000000000000e+00 5.0000000000000000e+00 -3.7173481893303180e+00 -9.3095959614941943e+00 4.2313028289991308e+01 0 0 0
219 3 1.7000000000000000e+00 5.0000000000000000e+00 -2.3251548213845807e+00 -9.0026112865350125e+00 4.2461267261391107e+01 0 0 0
220 3 1.5000000000000000e+00 5.0000000000000000e+00 -1.4010424226904790e+00 -9.3397222139442881e+00 4.1487372206322888e+01 0 0 0
221 3 1.5000000000000000e+00 5.0000000000000000e+00 -7.4622527732655342e-01 -8.3737625155551854e+00 4.2110035699189304e+01 0 0 0
222 3 1.7000000000000000e+00 5.0000000000000000e+00 1.8117102767221898e+00 -9.2009019899531097e+00 4.1390996813358392e+01 0 0 0
223 3 1.7000000000000000e+00 5.0000000000000000e+00 3.3622646237502232e-02 -9.1934493457555249e+00 4.1406957759105111e+01 0 0 0
224 3 1.1000000000000001e+00 5.0000000000000000e+00 8.8779921167257525e-01 -9.6225542576971268e+00 4.1933369893675092e+01 0 0 0
225 3 1.1000000000000001e+00 5.0000000000000000e+00 3.9007102725822024e-01 -8.2533425610318076e+00 4.2224227286410958e+01 0 0 0
226 3 1.3000000000000000e+00 5.0000000000000000e+00 8.5479698571368834e-02 -9.4173032188306500e+00 4.2623317926944573e+01 0 0 0
227 3 1.1000000000000001e+00 5.0000000000000000e+00 3.0136676484704341e+00 -9.5254854969406715e+00 4.1158477149890075e+01 0 0 0
228 3 1.5000000000000000e+00 5.0000000000000000e+00 2.8773223140925070e+00 -8.2107633406949372e+00 4.1364839529794729e+01 0 0 0
229 3 1.5000000000000000e+00 5.0000000000000000e+00 2.9136559002555584e+00 -9.3258118513651773e+00 4.2137710029114729e+01 0 0 0
230 3 1.3000000000000000e+00 5.0000000000000000e+00 3.5870348409690935e+00 -8.2274612278429355e+00 4.2189522094682708e+01 0 0 0
232 3 1.3000000000000000e+00 5.0000000000000000e+00 5.6480536811278750e+00 -9.4480318092367099e+00 4.1373457179515277e+01 0 0 0