LIGGGHTS (Version LIGGGHTS-PUBLIC 3.8.0, compiled 2025-09-16 14:10:11 by howardtu, git commit 3d5c00f20519e6bb6eb6756f51f1ad36564e649d, build configuration: MPI SMALLBIG, models: HERTZ TANGENTIAL_HISTORY TANGENTIAL_NO_HISTORY COHESION_SJKR COHESION_SJKR2 ROLLING_EPSD2 SURFACE_DEFAULT)
#------------------General Settings for Granular Systems--------------------------------------------
# Update the MATLAB so that the walls take up the full square no hex patten
atom_style      granular
atom_modify     map array
boundary        f f f
newton          off
communicate     single vel yes
units           micro
neighbor        0.001 bin
neigh_modify    every 1 delay 0 check yes
echo            both
timestep        5.e-6

# Target pressures for compaction
variable        tarp        equal     100
variable        tarp1       equal     300
variable        tarp2       equal     300
variable        tarpc       equal     340 # 17/15

#--------------------------Material Information---------------------------------------------------------
# Coefficient of restitution
variable        cf_11         equal     0.1     # AM-AM
variable        cf_22         equal     0.1     # CC1-CC1
variable        cf_33         equal     0.1     # SE-SE
variable        cf_44         equal     0.1     # Wall-Wall
variable        cf_55         equal     0.1     # Ghost-Ghost
variable        cf_66         equal     0.1     # CC2-CC2
variable        cf_12         equal     0.1     # AM-CC1
variable        cf_13         equal     0.1     # AM-SE
variable        cf_14         equal     0.1     # AM-Wall
variable        cf_15         equal     0.1     # AM-Ghost
variable        cf_16         equal     0.1     # AM-CC2
variable        cf_23         equal     0.1     # CC1-SE
variable        cf_24         equal     0.1     # CC1-Wall
variable        cf_25         equal     0.1     # CC1-Ghost
variable        cf_26         equal     0.1     # CC1-CC2
variable        cf_34         equal     0.1     # SE-Wall
variable        cf_35         equal     0.1     # SE-Ghost
variable        cf_36         equal     0.1     # SE-CC2
variable        cf_45         equal     0.1     # Wall-Ghost
variable        cf_46         equal     0.1     # Wall-CC2
variable        cf_56         equal     0.1     # Ghost-CC2

# Coefficient of friction
variable        cof_all       equal     0.1     # Same for all pairs

# Coefficient of rolling friction
variable        corf_all      equal     0.1     # Same for all pairs

# Young's modulus
variable        Yam           equal     48.5e6    # AM (Active Material) [kPa]
variable        Ycc           equal     50.e6  # CC1 and CC2 (Current Collectors) [kPa]
variable        Yse           equal     23.e6  # SE (Solid Electrolyte) [kPa]
variable        Yww           equal     50.e6    # Wall [kPa]
variable        Yghost        equal     50.e6    # Ghost particles [kPa]

variable        particle_poissons_ratio equal 0.4

#---------------------Read Initial Configuration----------------------------------------
read_data        mdl_high_density.data
  orthogonal box = (-10 -10 0) to (10 10 77)
  1 by 1 by 4 MPI processor grid
  6975 atoms

# Define groups based on particle types
group  cc2   type  6   # Current Collector 2 (top/lithium)
400 atoms in group cc2
group  se    type  3   # Solid Electrolyte
5632 atoms in group se
group  ghost type  5   # Ghost layer (separator)
400 atoms in group ghost
group  am    type  1   # Active Material
143 atoms in group am
group  cc1   type  2   # Current Collector 1 (bottom)
400 atoms in group cc1

group  ptc   type  1 3 # Types effected by walls
5775 atoms in group ptc

#---------------------Assign Material Properties----------------------------------------
fix     m1 all property/global youngsModulus peratomtype ${Yam} ${Ycc} ${Yse} ${Yww} ${Yghost} ${Ycc}
fix     m1 all property/global youngsModulus peratomtype 48500000 ${Ycc} ${Yse} ${Yww} ${Yghost} ${Ycc}
fix     m1 all property/global youngsModulus peratomtype 48500000 50000000 ${Yse} ${Yww} ${Yghost} ${Ycc}
fix     m1 all property/global youngsModulus peratomtype 48500000 50000000 23000000 ${Yww} ${Yghost} ${Ycc}
fix     m1 all property/global youngsModulus peratomtype 48500000 50000000 23000000 50000000 ${Yghost} ${Ycc}
fix     m1 all property/global youngsModulus peratomtype 48500000 50000000 23000000 50000000 50000000 ${Ycc}
fix     m1 all property/global youngsModulus peratomtype 48500000 50000000 23000000 50000000 50000000 50000000
fix     m2 all property/global poissonsRatio peratomtype ${particle_poissons_ratio} ${particle_poissons_ratio} ${particle_poissons_ratio} ${particle_poissons_ratio} ${particle_poissons_ratio} ${particle_poissons_ratio}
fix     m2 all property/global poissonsRatio peratomtype 0.4 ${particle_poissons_ratio} ${particle_poissons_ratio} ${particle_poissons_ratio} ${particle_poissons_ratio} ${particle_poissons_ratio}
fix     m2 all property/global poissonsRatio peratomtype 0.4 0.4 ${particle_poissons_ratio} ${particle_poissons_ratio} ${particle_poissons_ratio} ${particle_poissons_ratio}
fix     m2 all property/global poissonsRatio peratomtype 0.4 0.4 0.4 ${particle_poissons_ratio} ${particle_poissons_ratio} ${particle_poissons_ratio}
fix     m2 all property/global poissonsRatio peratomtype 0.4 0.4 0.4 0.4 ${particle_poissons_ratio} ${particle_poissons_ratio}
fix     m2 all property/global poissonsRatio peratomtype 0.4 0.4 0.4 0.4 0.4 ${particle_poissons_ratio}
fix     m2 all property/global poissonsRatio peratomtype 0.4 0.4 0.4 0.4 0.4 0.4

# Coefficient of restitution matrix (6x6)
fix     m3 all property/global coefficientRestitution peratomtypepair 6         ${cf_11} ${cf_12} ${cf_13} ${cf_14} ${cf_15} ${cf_16}         ${cf_12} ${cf_22} ${cf_23} ${cf_24} ${cf_25} ${cf_26}         ${cf_13} ${cf_23} ${cf_33} ${cf_34} ${cf_35} ${cf_36}         ${cf_14} ${cf_24} ${cf_34} ${cf_44} ${cf_45} ${cf_46}         ${cf_15} ${cf_25} ${cf_35} ${cf_45} ${cf_55} ${cf_56}         ${cf_16} ${cf_26} ${cf_36} ${cf_46} ${cf_56} ${cf_66}
fix     m3 all property/global coefficientRestitution peratomtypepair 6         0.1 ${cf_12} ${cf_13} ${cf_14} ${cf_15} ${cf_16}         ${cf_12} ${cf_22} ${cf_23} ${cf_24} ${cf_25} ${cf_26}         ${cf_13} ${cf_23} ${cf_33} ${cf_34} ${cf_35} ${cf_36}         ${cf_14} ${cf_24} ${cf_34} ${cf_44} ${cf_45} ${cf_46}         ${cf_15} ${cf_25} ${cf_35} ${cf_45} ${cf_55} ${cf_56}         ${cf_16} ${cf_26} ${cf_36} ${cf_46} ${cf_56} ${cf_66}
fix     m3 all property/global coefficientRestitution peratomtypepair 6         0.1 0.1 ${cf_13} ${cf_14} ${cf_15} ${cf_16}         ${cf_12} ${cf_22} ${cf_23} ${cf_24} ${cf_25} ${cf_26}         ${cf_13} ${cf_23} ${cf_33} ${cf_34} ${cf_35} ${cf_36}         ${cf_14} ${cf_24} ${cf_34} ${cf_44} ${cf_45} ${cf_46}         ${cf_15} ${cf_25} ${cf_35} ${cf_45} ${cf_55} ${cf_56}         ${cf_16} ${cf_26} ${cf_36} ${cf_46} ${cf_56} ${cf_66}
fix     m3 all property/global coefficientRestitution peratomtypepair 6         0.1 0.1 0.1 ${cf_14} ${cf_15} ${cf_16}         ${cf_12} ${cf_22} ${cf_23} ${cf_24} ${cf_25} ${cf_26}         ${cf_13} ${cf_23} ${cf_33} ${cf_34} ${cf_35} ${cf_36}         ${cf_14} ${cf_24} ${cf_34} ${cf_44} ${cf_45} ${cf_46}         ${cf_15} ${cf_25} ${cf_35} ${cf_45} ${cf_55} ${cf_56}         ${cf_16} ${cf_26} ${cf_36} ${cf_46} ${cf_56} ${cf_66}
fix     m3 all property/global coefficientRestitution peratomtypepair 6         0.1 0.1 0.1 0.1 ${cf_15} ${cf_16}         ${cf_12} ${cf_22} ${cf_23} ${cf_24} ${cf_25} ${cf_26}         ${cf_13} ${cf_23} ${cf_33} ${cf_34} ${cf_35} ${cf_36}         ${cf_14} ${cf_24} ${cf_34} ${cf_44} ${cf_45} ${cf_46}         ${cf_15} ${cf_25} ${cf_35} ${cf_45} ${cf_55} ${cf_56}         ${cf_16} ${cf_26} ${cf_36} ${cf_46} ${cf_56} ${cf_66}
fix     m3 all property/global coefficientRestitution peratomtypepair 6         0.1 0.1 0.1 0.1 0.1 ${cf_16}         ${cf_12} ${cf_22} ${cf_23} ${cf_24} ${cf_25} ${cf_26}         ${cf_13} ${cf_23} ${cf_33} ${cf_34} ${cf_35} ${cf_36}         ${cf_14} ${cf_24} ${cf_34} ${cf_44} ${cf_45} ${cf_46}         ${cf_15} ${cf_25} ${cf_35} ${cf_45} ${cf_55} ${cf_56}         ${cf_16} ${cf_26} ${cf_36} ${cf_46} ${cf_56} ${cf_66}
fix     m3 all property/global coefficientRestitution peratomtypepair 6         0.1 0.1 0.1 0.1 0.1 0.1         ${cf_12} ${cf_22} ${cf_23} ${cf_24} ${cf_25} ${cf_26}         ${cf_13} ${cf_23} ${cf_33} ${cf_34} ${cf_35} ${cf_36}         ${cf_14} ${cf_24} ${cf_34} ${cf_44} ${cf_45} ${cf_46}         ${cf_15} ${cf_25} ${cf_35} ${cf_45} ${cf_55} ${cf_56}         ${cf_16} ${cf_26} ${cf_36} ${cf_46} ${cf_56} ${cf_66}
fix     m3 all property/global coefficientRestitution peratomtypepair 6         0.1 0.1 0.1 0.1 0.1 0.1         0.1 ${cf_22} ${cf_23} ${cf_24} ${cf_25} ${cf_26}         ${cf_13} ${cf_23} ${cf_33} ${cf_34} ${cf_35} ${cf_36}         ${cf_14} ${cf_24} ${cf_34} ${cf_44} ${cf_45} ${cf_46}         ${cf_15} ${cf_25} ${cf_35} ${cf_45} ${cf_55} ${cf_56}         ${cf_16} ${cf_26} ${cf_36} ${cf_46} ${cf_56} ${cf_66}
fix     m3 all property/global coefficientRestitution peratomtypepair 6         0.1 0.1 0.1 0.1 0.1 0.1         0.1 0.1 ${cf_23} ${cf_24} ${cf_25} ${cf_26}         ${cf_13} ${cf_23} ${cf_33} ${cf_34} ${cf_35} ${cf_36}         ${cf_14} ${cf_24} ${cf_34} ${cf_44} ${cf_45} ${cf_46}         ${cf_15} ${cf_25} ${cf_35} ${cf_45} ${cf_55} ${cf_56}         ${cf_16} ${cf_26} ${cf_36} ${cf_46} ${cf_56} ${cf_66}
fix     m3 all property/global coefficientRestitution peratomtypepair 6         0.1 0.1 0.1 0.1 0.1 0.1         0.1 0.1 0.1 ${cf_24} ${cf_25} ${cf_26}         ${cf_13} ${cf_23} ${cf_33} ${cf_34} ${cf_35} ${cf_36}         ${cf_14} ${cf_24} ${cf_34} ${cf_44} ${cf_45} ${cf_46}         ${cf_15} ${cf_25} ${cf_35} ${cf_45} ${cf_55} ${cf_56}         ${cf_16} ${cf_26} ${cf_36} ${cf_46} ${cf_56} ${cf_66}
fix     m3 all property/global coefficientRestitution peratomtypepair 6         0.1 0.1 0.1 0.1 0.1 0.1         0.1 0.1 0.1 0.1 ${cf_25} ${cf_26}         ${cf_13} ${cf_23} ${cf_33} ${cf_34} ${cf_35} ${cf_36}         ${cf_14} ${cf_24} ${cf_34} ${cf_44} ${cf_45} ${cf_46}         ${cf_15} ${cf_25} ${cf_35} ${cf_45} ${cf_55} ${cf_56}         ${cf_16} ${cf_26} ${cf_36} ${cf_46} ${cf_56} ${cf_66}
fix     m3 all property/global coefficientRestitution peratomtypepair 6         0.1 0.1 0.1 0.1 0.1 0.1         0.1 0.1 0.1 0.1 0.1 ${cf_26}         ${cf_13} ${cf_23} ${cf_33} ${cf_34} ${cf_35} ${cf_36}         ${cf_14} ${cf_24} ${cf_34} ${cf_44} ${cf_45} ${cf_46}         ${cf_15} ${cf_25} ${cf_35} ${cf_45} ${cf_55} ${cf_56}         ${cf_16} ${cf_26} ${cf_36} ${cf_46} ${cf_56} ${cf_66}
fix     m3 all property/global coefficientRestitution peratomtypepair 6         0.1 0.1 0.1 0.1 0.1 0.1         0.1 0.1 0.1 0.1 0.1 0.1         ${cf_13} ${cf_23} ${cf_33} ${cf_34} ${cf_35} ${cf_36}         ${cf_14} ${cf_24} ${cf_34} ${cf_44} ${cf_45} ${cf_46}         ${cf_15} ${cf_25} ${cf_35} ${cf_45} ${cf_55} ${cf_56}         ${cf_16} ${cf_26} ${cf_36} ${cf_46} ${cf_56} ${cf_66}
fix     m3 all property/global coefficientRestitution peratomtypepair 6         0.1 0.1 0.1 0.1 0.1 0.1         0.1 0.1 0.1 0.1 0.1 0.1         0.1 ${cf_23} ${cf_33} ${cf_34} ${cf_35} ${cf_36}         ${cf_14} ${cf_24} ${cf_34} ${cf_44} ${cf_45} ${cf_46}         ${cf_15} ${cf_25} ${cf_35} ${cf_45} ${cf_55} ${cf_56}         ${cf_16} ${cf_26} ${cf_36} ${cf_46} ${cf_56} ${cf_66}
fix     m3 all property/global coefficientRestitution peratomtypepair 6         0.1 0.1 0.1 0.1 0.1 0.1         0.1 0.1 0.1 0.1 0.1 0.1         0.1 0.1 ${cf_33} ${cf_34} ${cf_35} ${cf_36}         ${cf_14} ${cf_24} ${cf_34} ${cf_44} ${cf_45} ${cf_46}         ${cf_15} ${cf_25} ${cf_35} ${cf_45} ${cf_55} ${cf_56}         ${cf_16} ${cf_26} ${cf_36} ${cf_46} ${cf_56} ${cf_66}
fix     m3 all property/global coefficientRestitution peratomtypepair 6         0.1 0.1 0.1 0.1 0.1 0.1         0.1 0.1 0.1 0.1 0.1 0.1         0.1 0.1 0.1 ${cf_34} ${cf_35} ${cf_36}         ${cf_14} ${cf_24} ${cf_34} ${cf_44} ${cf_45} ${cf_46}         ${cf_15} ${cf_25} ${cf_35} ${cf_45} ${cf_55} ${cf_56}         ${cf_16} ${cf_26} ${cf_36} ${cf_46} ${cf_56} ${cf_66}
fix     m3 all property/global coefficientRestitution peratomtypepair 6         0.1 0.1 0.1 0.1 0.1 0.1         0.1 0.1 0.1 0.1 0.1 0.1         0.1 0.1 0.1 0.1 ${cf_35} ${cf_36}         ${cf_14} ${cf_24} ${cf_34} ${cf_44} ${cf_45} ${cf_46}         ${cf_15} ${cf_25} ${cf_35} ${cf_45} ${cf_55} ${cf_56}         ${cf_16} ${cf_26} ${cf_36} ${cf_46} ${cf_56} ${cf_66}
fix     m3 all property/global coefficientRestitution peratomtypepair 6         0.1 0.1 0.1 0.1 0.1 0.1         0.1 0.1 0.1 0.1 0.1 0.1         0.1 0.1 0.1 0.1 0.1 ${cf_36}         ${cf_14} ${cf_24} ${cf_34} ${cf_44} ${cf_45} ${cf_46}         ${cf_15} ${cf_25} ${cf_35} ${cf_45} ${cf_55} ${cf_56}         ${cf_16} ${cf_26} ${cf_36} ${cf_46} ${cf_56} ${cf_66}
fix     m3 all property/global coefficientRestitution peratomtypepair 6         0.1 0.1 0.1 0.1 0.1 0.1         0.1 0.1 0.1 0.1 0.1 0.1         0.1 0.1 0.1 0.1 0.1 0.1         ${cf_14} ${cf_24} ${cf_34} ${cf_44} ${cf_45} ${cf_46}         ${cf_15} ${cf_25} ${cf_35} ${cf_45} ${cf_55} ${cf_56}         ${cf_16} ${cf_26} ${cf_36} ${cf_46} ${cf_56} ${cf_66}
fix     m3 all property/global coefficientRestitution peratomtypepair 6         0.1 0.1 0.1 0.1 0.1 0.1         0.1 0.1 0.1 0.1 0.1 0.1         0.1 0.1 0.1 0.1 0.1 0.1         0.1 ${cf_24} ${cf_34} ${cf_44} ${cf_45} ${cf_46}         ${cf_15} ${cf_25} ${cf_35} ${cf_45} ${cf_55} ${cf_56}         ${cf_16} ${cf_26} ${cf_36} ${cf_46} ${cf_56} ${cf_66}
fix     m3 all property/global coefficientRestitution peratomtypepair 6         0.1 0.1 0.1 0.1 0.1 0.1         0.1 0.1 0.1 0.1 0.1 0.1         0.1 0.1 0.1 0.1 0.1 0.1         0.1 0.1 ${cf_34} ${cf_44} ${cf_45} ${cf_46}         ${cf_15} ${cf_25} ${cf_35} ${cf_45} ${cf_55} ${cf_56}         ${cf_16} ${cf_26} ${cf_36} ${cf_46} ${cf_56} ${cf_66}
fix     m3 all property/global coefficientRestitution peratomtypepair 6         0.1 0.1 0.1 0.1 0.1 0.1         0.1 0.1 0.1 0.1 0.1 0.1         0.1 0.1 0.1 0.1 0.1 0.1         0.1 0.1 0.1 ${cf_44} ${cf_45} ${cf_46}         ${cf_15} ${cf_25} ${cf_35} ${cf_45} ${cf_55} ${cf_56}         ${cf_16} ${cf_26} ${cf_36} ${cf_46} ${cf_56} ${cf_66}
fix     m3 all property/global coefficientRestitution peratomtypepair 6         0.1 0.1 0.1 0.1 0.1 0.1         0.1 0.1 0.1 0.1 0.1 0.1         0.1 0.1 0.1 0.1 0.1 0.1         0.1 0.1 0.1 0.1 ${cf_45} ${cf_46}         ${cf_15} ${cf_25} ${cf_35} ${cf_45} ${cf_55} ${cf_56}         ${cf_16} ${cf_26} ${cf_36} ${cf_46} ${cf_56} ${cf_66}
fix     m3 all property/global coefficientRestitution peratomtypepair 6         0.1 0.1 0.1 0.1 0.1 0.1         0.1 0.1 0.1 0.1 0.1 0.1         0.1 0.1 0.1 0.1 0.1 0.1         0.1 0.1 0.1 0.1 0.1 ${cf_46}         ${cf_15} ${cf_25} ${cf_35} ${cf_45} ${cf_55} ${cf_56}         ${cf_16} ${cf_26} ${cf_36} ${cf_46} ${cf_56} ${cf_66}
fix     m3 all property/global coefficientRestitution peratomtypepair 6         0.1 0.1 0.1 0.1 0.1 0.1         0.1 0.1 0.1 0.1 0.1 0.1         0.1 0.1 0.1 0.1 0.1 0.1         0.1 0.1 0.1 0.1 0.1 0.1         ${cf_15} ${cf_25} ${cf_35} ${cf_45} ${cf_55} ${cf_56}         ${cf_16} ${cf_26} ${cf_36} ${cf_46} ${cf_56} ${cf_66}
fix     m3 all property/global coefficientRestitution peratomtypepair 6         0.1 0.1 0.1 0.1 0.1 0.1         0.1 0.1 0.1 0.1 0.1 0.1         0.1 0.1 0.1 0.1 0.1 0.1         0.1 0.1 0.1 0.1 0.1 0.1         0.1 ${cf_25} ${cf_35} ${cf_45} ${cf_55} ${cf_56}         ${cf_16} ${cf_26} ${cf_36} ${cf_46} ${cf_56} ${cf_66}
fix     m3 all property/global coefficientRestitution peratomtypepair 6         0.1 0.1 0.1 0.1 0.1 0.1         0.1 0.1 0.1 0.1 0.1 0.1         0.1 0.1 0.1 0.1 0.1 0.1         0.1 0.1 0.1 0.1 0.1 0.1         0.1 0.1 ${cf_35} ${cf_45} ${cf_55} ${cf_56}         ${cf_16} ${cf_26} ${cf_36} ${cf_46} ${cf_56} ${cf_66}
fix     m3 all property/global coefficientRestitution peratomtypepair 6         0.1 0.1 0.1 0.1 0.1 0.1         0.1 0.1 0.1 0.1 0.1 0.1         0.1 0.1 0.1 0.1 0.1 0.1         0.1 0.1 0.1 0.1 0.1 0.1         0.1 0.1 0.1 ${cf_45} ${cf_55} ${cf_56}         ${cf_16} ${cf_26} ${cf_36} ${cf_46} ${cf_56} ${cf_66}
fix     m3 all property/global coefficientRestitution peratomtypepair 6         0.1 0.1 0.1 0.1 0.1 0.1         0.1 0.1 0.1 0.1 0.1 0.1         0.1 0.1 0.1 0.1 0.1 0.1         0.1 0.1 0.1 0.1 0.1 0.1         0.1 0.1 0.1 0.1 ${cf_55} ${cf_56}         ${cf_16} ${cf_26} ${cf_36} ${cf_46} ${cf_56} ${cf_66}
fix     m3 all property/global coefficientRestitution peratomtypepair 6         0.1 0.1 0.1 0.1 0.1 0.1         0.1 0.1 0.1 0.1 0.1 0.1         0.1 0.1 0.1 0.1 0.1 0.1         0.1 0.1 0.1 0.1 0.1 0.1         0.1 0.1 0.1 0.1 0.1 ${cf_56}         ${cf_16} ${cf_26} ${cf_36} ${cf_46} ${cf_56} ${cf_66}
fix     m3 all property/global coefficientRestitution peratomtypepair 6         0.1 0.1 0.1 0.1 0.1 0.1         0.1 0.1 0.1 0.1 0.1 0.1         0.1 0.1 0.1 0.1 0.1 0.1         0.1 0.1 0.1 0.1 0.1 0.1         0.1 0.1 0.1 0.1 0.1 0.1         ${cf_16} ${cf_26} ${cf_36} ${cf_46} ${cf_56} ${cf_66}
fix     m3 all property/global coefficientRestitution peratomtypepair 6         0.1 0.1 0.1 0.1 0.1 0.1         0.1 0.1 0.1 0.1 0.1 0.1         0.1 0.1 0.1 0.1 0.1 0.1         0.1 0.1 0.1 0.1 0.1 0.1         0.1 0.1 0.1 0.1 0.1 0.1         0.1 ${cf_26} ${cf_36} ${cf_46} ${cf_56} ${cf_66}
fix     m3 all property/global coefficientRestitution peratomtypepair 6         0.1 0.1 0.1 0.1 0.1 0.1         0.1 0.1 0.1 0.1 0.1 0.1         0.1 0.1 0.1 0.1 0.1 0.1         0.1 0.1 0.1 0.1 0.1 0.1         0.1 0.1 0.1 0.1 0.1 0.1         0.1 0.1 ${cf_36} ${cf_46} ${cf_56} ${cf_66}
fix     m3 all property/global coefficientRestitution peratomtypepair 6         0.1 0.1 0.1 0.1 0.1 0.1         0.1 0.1 0.1 0.1 0.1 0.1         0.1 0.1 0.1 0.1 0.1 0.1         0.1 0.1 0.1 0.1 0.1 0.1         0.1 0.1 0.1 0.1 0.1 0.1         0.1 0.1 0.1 ${cf_46} ${cf_56} ${cf_66}
fix     m3 all property/global coefficientRestitution peratomtypepair 6         0.1 0.1 0.1 0.1 0.1 0.1         0.1 0.1 0.1 0.1 0.1 0.1         0.1 0.1 0.1 0.1 0.1 0.1         0.1 0.1 0.1 0.1 0.1 0.1         0.1 0.1 0.1 0.1 0.1 0.1         0.1 0.1 0.1 0.1 ${cf_56} ${cf_66}
fix     m3 all property/global coefficientRestitution peratomtypepair 6         0.1 0.1 0.1 0.1 0.1 0.1         0.1 0.1 0.1 0.1 0.1 0.1         0.1 0.1 0.1 0.1 0.1 0.1         0.1 0.1 0.1 0.1 0.1 0.1         0.1 0.1 0.1 0.1 0.1 0.1         0.1 0.1 0.1 0.1 0.1 ${cf_66}
fix     m3 all property/global coefficientRestitution peratomtypepair 6         0.1 0.1 0.1 0.1 0.1 0.1         0.1 0.1 0.1 0.1 0.1 0.1         0.1 0.1 0.1 0.1 0.1 0.1         0.1 0.1 0.1 0.1 0.1 0.1         0.1 0.1 0.1 0.1 0.1 0.1         0.1 0.1 0.1 0.1 0.1 0.1

# Coefficient of friction matrix (6x6) - using same value for all
fix     m4 all property/global coefficientFriction peratomtypepair 6         ${cof_all} ${cof_all} ${cof_all} ${cof_all} ${cof_all} ${cof_all}         ${cof_all} ${cof_all} ${cof_all} ${cof_all} ${cof_all} ${cof_all}         ${cof_all} ${cof_all} ${cof_all} ${cof_all} ${cof_all} ${cof_all}         ${cof_all} ${cof_all} ${cof_all} ${cof_all} ${cof_all} ${cof_all}         ${cof_all} ${cof_all} ${cof_all} ${cof_all} ${cof_all} ${cof_all}         ${cof_all} ${cof_all} ${cof_all} ${cof_all} ${cof_all} ${cof_all}
fix     m4 all property/global coefficientFriction peratomtypepair 6         0.1 ${cof_all} ${cof_all} ${cof_all} ${cof_all} ${cof_all}         ${cof_all} ${cof_all} ${cof_all} ${cof_all} ${cof_all} ${cof_all}         ${cof_all} ${cof_all} ${cof_all} ${cof_all} ${cof_all} ${cof_all}         ${cof_all} ${cof_all} ${cof_all} ${cof_all} ${cof_all} ${cof_all}         ${cof_all} ${cof_all} ${cof_all} ${cof_all} ${cof_all} ${cof_all}         ${cof_all} ${cof_all} ${cof_all} ${cof_all} ${cof_all} ${cof_all}
fix     m4 all property/global coefficientFriction peratomtypepair 6         0.1 0.1 ${cof_all} ${cof_all} ${cof_all} ${cof_all}         ${cof_all} ${cof_all} ${cof_all} ${cof_all} ${cof_all} ${cof_all}         ${cof_all} ${cof_all} ${cof_all} ${cof_all} ${cof_all} ${cof_all}         ${cof_all} ${cof_all} ${cof_all} ${cof_all} ${cof_all} ${cof_all}         ${cof_all} ${cof_all} ${cof_all} ${cof_all} ${cof_all} ${cof_all}         ${cof_all} ${cof_all} ${cof_all} ${cof_all} ${cof_all} ${cof_all}
fix     m4 all property/global coefficientFriction peratomtypepair 6         0.1 0.1 0.1 ${cof_all} ${cof_all} ${cof_all}         ${cof_all} ${cof_all} ${cof_all} ${cof_all} ${cof_all} ${cof_all}         ${cof_all} ${cof_all} ${cof_all} ${cof_all} ${cof_all} ${cof_all}         ${cof_all} ${cof_all} ${cof_all} ${cof_all} ${cof_all} ${cof_all}         ${cof_all} ${cof_all} ${cof_all} ${cof_all} ${cof_all} ${cof_all}         ${cof_all} ${cof_all} ${cof_all} ${cof_all} ${cof_all} ${cof_all}
fix     m4 all property/global coefficientFriction peratomtypepair 6         0.1 0.1 0.1 0.1 ${cof_all} ${cof_all}         ${cof_all} ${cof_all} ${cof_all} ${cof_all} ${cof_all} ${cof_all}         ${cof_all} ${cof_all} ${cof_all} ${cof_all} ${cof_all} ${cof_all}         ${cof_all} ${cof_all} ${cof_all} ${cof_all} ${cof_all} ${cof_all}         ${cof_all} ${cof_all} ${cof_all} ${cof_all} ${cof_all} ${cof_all}         ${cof_all} ${cof_all} ${cof_all} ${cof_all} ${cof_all} ${cof_all}
fix     m4 all property/global coefficientFriction peratomtypepair 6         0.1 0.1 0.1 0.1 0.1 ${cof_all}         ${cof_all} ${cof_all} ${cof_all} ${cof_all} ${cof_all} ${cof_all}         ${cof_all} ${cof_all} ${cof_all} ${cof_all} ${cof_all} ${cof_all}         ${cof_all} ${cof_all} ${cof_all} ${cof_all} ${cof_all} ${cof_all}         ${cof_all} ${cof_all} ${cof_all} ${cof_all} ${cof_all} ${cof_all}         ${cof_all} ${cof_all} ${cof_all} ${cof_all} ${cof_all} ${cof_all}
fix     m4 all property/global coefficientFriction peratomtypepair 6         0.1 0.1 0.1 0.1 0.1 0.1         ${cof_all} ${cof_all} ${cof_all} ${cof_all} ${cof_all} ${cof_all}         ${cof_all} ${cof_all} ${cof_all} ${cof_all} ${cof_all} ${cof_all}         ${cof_all} ${cof_all} ${cof_all} ${cof_all} ${cof_all} ${cof_all}         ${cof_all} ${cof_all} ${cof_all} ${cof_all} ${cof_all} ${cof_all}         ${cof_all} ${cof_all} ${cof_all} ${cof_all} ${cof_all} ${cof_all}
fix     m4 all property/global coefficientFriction peratomtypepair 6         0.1 0.1 0.1 0.1 0.1 0.1         0.1 ${cof_all} ${cof_all} ${cof_all} ${cof_all} ${cof_all}         ${cof_all} ${cof_all} ${cof_all} ${cof_all} ${cof_all} ${cof_all}         ${cof_all} ${cof_all} ${cof_all} ${cof_all} ${cof_all} ${cof_all}         ${cof_all} ${cof_all} ${cof_all} ${cof_all} ${cof_all} ${cof_all}         ${cof_all} ${cof_all} ${cof_all} ${cof_all} ${cof_all} ${cof_all}
fix     m4 all property/global coefficientFriction peratomtypepair 6         0.1 0.1 0.1 0.1 0.1 0.1         0.1 0.1 ${cof_all} ${cof_all} ${cof_all} ${cof_all}         ${cof_all} ${cof_all} ${cof_all} ${cof_all} ${cof_all} ${cof_all}         ${cof_all} ${cof_all} ${cof_all} ${cof_all} ${cof_all} ${cof_all}         ${cof_all} ${cof_all} ${cof_all} ${cof_all} ${cof_all} ${cof_all}         ${cof_all} ${cof_all} ${cof_all} ${cof_all} ${cof_all} ${cof_all}
fix     m4 all property/global coefficientFriction peratomtypepair 6         0.1 0.1 0.1 0.1 0.1 0.1         0.1 0.1 0.1 ${cof_all} ${cof_all} ${cof_all}         ${cof_all} ${cof_all} ${cof_all} ${cof_all} ${cof_all} ${cof_all}         ${cof_all} ${cof_all} ${cof_all} ${cof_all} ${cof_all} ${cof_all}         ${cof_all} ${cof_all} ${cof_all} ${cof_all} ${cof_all} ${cof_all}         ${cof_all} ${cof_all} ${cof_all} ${cof_all} ${cof_all} ${cof_all}
fix     m4 all property/global coefficientFriction peratomtypepair 6         0.1 0.1 0.1 0.1 0.1 0.1         0.1 0.1 0.1 0.1 ${cof_all} ${cof_all}         ${cof_all} ${cof_all} ${cof_all} ${cof_all} ${cof_all} ${cof_all}         ${cof_all} ${cof_all} ${cof_all} ${cof_all} ${cof_all} ${cof_all}         ${cof_all} ${cof_all} ${cof_all} ${cof_all} ${cof_all} ${cof_all}         ${cof_all} ${cof_all} ${cof_all} ${cof_all} ${cof_all} ${cof_all}
fix     m4 all property/global coefficientFriction peratomtypepair 6         0.1 0.1 0.1 0.1 0.1 0.1         0.1 0.1 0.1 0.1 0.1 ${cof_all}         ${cof_all} ${cof_all} ${cof_all} ${cof_all} ${cof_all} ${cof_all}         ${cof_all} ${cof_all} ${cof_all} ${cof_all} ${cof_all} ${cof_all}         ${cof_all} ${cof_all} ${cof_all} ${cof_all} ${cof_all} ${cof_all}         ${cof_all} ${cof_all} ${cof_all} ${cof_all} ${cof_all} ${cof_all}
fix     m4 all property/global coefficientFriction peratomtypepair 6         0.1 0.1 0.1 0.1 0.1 0.1         0.1 0.1 0.1 0.1 0.1 0.1         ${cof_all} ${cof_all} ${cof_all} ${cof_all} ${cof_all} ${cof_all}         ${cof_all} ${cof_all} ${cof_all} ${cof_all} ${cof_all} ${cof_all}         ${cof_all} ${cof_all} ${cof_all} ${cof_all} ${cof_all} ${cof_all}         ${cof_all} ${cof_all} ${cof_all} ${cof_all} ${cof_all} ${cof_all}
fix     m4 all property/global coefficientFriction peratomtypepair 6         0.1 0.1 0.1 0.1 0.1 0.1         0.1 0.1 0.1 0.1 0.1 0.1         0.1 ${cof_all} ${cof_all} ${cof_all} ${cof_all} ${cof_all}         ${cof_all} ${cof_all} ${cof_all} ${cof_all} ${cof_all} ${cof_all}         ${cof_all} ${cof_all} ${cof_all} ${cof_all} ${cof_all} ${cof_all}         ${cof_all} ${cof_all} ${cof_all} ${cof_all} ${cof_all} ${cof_all}
fix     m4 all property/global coefficientFriction peratomtypepair 6         0.1 0.1 0.1 0.1 0.1 0.1         0.1 0.1 0.1 0.1 0.1 0.1         0.1 0.1 ${cof_all} ${cof_all} ${cof_all} ${cof_all}         ${cof_all} ${cof_all} ${cof_all} ${cof_all} ${cof_all} ${cof_all}         ${cof_all} ${cof_all} ${cof_all} ${cof_all} ${cof_all} ${cof_all}         ${cof_all} ${cof_all} ${cof_all} ${cof_all} ${cof_all} ${cof_all}
fix     m4 all property/global coefficientFriction peratomtypepair 6         0.1 0.1 0.1 0.1 0.1 0.1         0.1 0.1 0.1 0.1 0.1 0.1         0.1 0.1 0.1 ${cof_all} ${cof_all} ${cof_all}         ${cof_all} ${cof_all} ${cof_all} ${cof_all} ${cof_all} ${cof_all}         ${cof_all} ${cof_all} ${cof_all} ${cof_all} ${cof_all} ${cof_all}         ${cof_all} ${cof_all} ${cof_all} ${cof_all} ${cof_all} ${cof_all}
fix     m4 all property/global coefficientFriction peratomtypepair 6         0.1 0.1 0.1 0.1 0.1 0.1         0.1 0.1 0.1 0.1 0.1 0.1         0.1 0.1 0.1 0.1 ${cof_all} ${cof_all}         ${cof_all} ${cof_all} ${cof_all} ${cof_all} ${cof_all} ${cof_all}         ${cof_all} ${cof_all} ${cof_all} ${cof_all} ${cof_all} ${cof_all}         ${cof_all} ${cof_all} ${cof_all} ${cof_all} ${cof_all} ${cof_all}
fix     m4 all property/global coefficientFriction peratomtypepair 6         0.1 0.1 0.1 0.1 0.1 0.1         0.1 0.1 0.1 0.1 0.1 0.1         0.1 0.1 0.1 0.1 0.1 ${cof_all}         ${cof_all} ${cof_all} ${cof_all} ${cof_all} ${cof_all} ${cof_all}         ${cof_all} ${cof_all} ${cof_all} ${cof_all} ${cof_all} ${cof_all}         ${cof_all} ${cof_all} ${cof_all} ${cof_all} ${cof_all} ${cof_all}
fix     m4 all property/global coefficientFriction peratomtypepair 6         0.1 0.1 0.1 0.1 0.1 0.1         0.1 0.1 0.1 0.1 0.1 0.1         0.1 0.1 0.1 0.1 0.1 0.1         ${cof_all} ${cof_all} ${cof_all} ${cof_all} ${cof_all} ${cof_all}         ${cof_all} ${cof_all} ${cof_all} ${cof_all} ${cof_all} ${cof_all}         ${cof_all} ${cof_all} ${cof_all} ${cof_all} ${cof_all} ${cof_all}
fix     m4 all property/global coefficientFriction peratomtypepair 6         0.1 0.1 0.1 0.1 0.1 0.1         0.1 0.1 0.1 0.1 0.1 0.1         0.1 0.1 0.1 0.1 0.1 0.1         0.1 ${cof_all} ${cof_all} ${cof_all} ${cof_all} ${cof_all}         ${cof_all} ${cof_all} ${cof_all} ${cof_all} ${cof_all} ${cof_all}         ${cof_all} ${cof_all} ${cof_all} ${cof_all} ${cof_all} ${cof_all}
fix     m4 all property/global coefficientFriction peratomtypepair 6         0.1 0.1 0.1 0.1 0.1 0.1         0.1 0.1 0.1 0.1 0.1 0.1         0.1 0.1 0.1 0.1 0.1 0.1         0.1 0.1 ${cof_all} ${cof_all} ${cof_all} ${cof_all}         ${cof_all} ${cof_all} ${cof_all} ${cof_all} ${cof_all} ${cof_all}         ${cof_all} ${cof_all} ${cof_all} ${cof_all} ${cof_all} ${cof_all}
fix     m4 all property/global coefficientFriction peratomtypepair 6         0.1 0.1 0.1 0.1 0.1 0.1         0.1 0.1 0.1 0.1 0.1 0.1         0.1 0.1 0.1 0.1 0.1 0.1         0.1 0.1 0.1 ${cof_all} ${cof_all} ${cof_all}         ${cof_all} ${cof_all} ${cof_all} ${cof_all} ${cof_all} ${cof_all}         ${cof_all} ${cof_all} ${cof_all} ${cof_all} ${cof_all} ${cof_all}
fix     m4 all property/global coefficientFriction peratomtypepair 6         0.1 0.1 0.1 0.1 0.1 0.1         0.1 0.1 0.1 0.1 0.1 0.1         0.1 0.1 0.1 0.1 0.1 0.1         0.1 0.1 0.1 0.1 ${cof_all} ${cof_all}         ${cof_all} ${cof_all} ${cof_all} ${cof_all} ${cof_all} ${cof_all}         ${cof_all} ${cof_all} ${cof_all} ${cof_all} ${cof_all} ${cof_all}
fix     m4 all property/global coefficientFriction peratomtypepair 6         0.1 0.1 0.1 0.1 0.1 0.1         0.1 0.1 0.1 0.1 0.1 0.1         0.1 0.1 0.1 0.1 0.1 0.1         0.1 0.1 0.1 0.1 0.1 ${cof_all}         ${cof_all} ${cof_all} ${cof_all} ${cof_all} ${cof_all} ${cof_all}         ${cof_all} ${cof_all} ${cof_all} ${cof_all} ${cof_all} ${cof_all}
fix     m4 all property/global coefficientFriction peratomtypepair 6         0.1 0.1 0.1 0.1 0.1 0.1         0.1 0.1 0.1 0.1 0.1 0.1         0.1 0.1 0.1 0.1 0.1 0.1         0.1 0.1 0.1 0.1 0.1 0.1         ${cof_all} ${cof_all} ${cof_all} ${cof_all} ${cof_all} ${cof_all}         ${cof_all} ${cof_all} ${cof_all} ${cof_all} ${cof_all} ${cof_all}
fix     m4 all property/global coefficientFriction peratomtypepair 6         0.1 0.1 0.1 0.1 0.1 0.1         0.1 0.1 0.1 0.1 0.1 0.1         0.1 0.1 0.1 0.1 0.1 0.1         0.1 0.1 0.1 0.1 0.1 0.1         0.1 ${cof_all} ${cof_all} ${cof_all} ${cof_all} ${cof_all}         ${cof_all} ${cof_all} ${cof_all} ${cof_all} ${cof_all} ${cof_all}
fix     m4 all property/global coefficientFriction peratomtypepair 6         0.1 0.1 0.1 0.1 0.1 0.1         0.1 0.1 0.1 0.1 0.1 0.1         0.1 0.1 0.1 0.1 0.1 0.1         0.1 0.1 0.1 0.1 0.1 0.1         0.1 0.1 ${cof_all} ${cof_all} ${cof_all} ${cof_all}         ${cof_all} ${cof_all} ${cof_all} ${cof_all} ${cof_all} ${cof_all}
fix     m4 all property/global coefficientFriction peratomtypepair 6         0.1 0.1 0.1 0.1 0.1 0.1         0.1 0.1 0.1 0.1 0.1 0.1         0.1 0.1 0.1 0.1 0.1 0.1         0.1 0.1 0.1 0.1 0.1 0.1         0.1 0.1 0.1 ${cof_all} ${cof_all} ${cof_all}         ${cof_all} ${cof_all} ${cof_all} ${cof_all} ${cof_all} ${cof_all}
fix     m4 all property/global coefficientFriction peratomtypepair 6         0.1 0.1 0.1 0.1 0.1 0.1         0.1 0.1 0.1 0.1 0.1 0.1         0.1 0.1 0.1 0.1 0.1 0.1         0.1 0.1 0.1 0.1 0.1 0.1         0.1 0.1 0.1 0.1 ${cof_all} ${cof_all}         ${cof_all} ${cof_all} ${cof_all} ${cof_all} ${cof_all} ${cof_all}
fix     m4 all property/global coefficientFriction peratomtypepair 6         0.1 0.1 0.1 0.1 0.1 0.1         0.1 0.1 0.1 0.1 0.1 0.1         0.1 0.1 0.1 0.1 0.1 0.1         0.1 0.1 0.1 0.1 0.1 0.1         0.1 0.1 0.1 0.1 0.1 ${cof_all}         ${cof_all} ${cof_all} ${cof_all} ${cof_all} ${cof_all} ${cof_all}
fix     m4 all property/global coefficientFriction peratomtypepair 6         0.1 0.1 0.1 0.1 0.1 0.1         0.1 0.1 0.1 0.1 0.1 0.1         0.1 0.1 0.1 0.1 0.1 0.1         0.1 0.1 0.1 0.1 0.1 0.1         0.1 0.1 0.1 0.1 0.1 0.1         ${cof_all} ${cof_all} ${cof_all} ${cof_all} ${cof_all} ${cof_all}
fix     m4 all property/global coefficientFriction peratomtypepair 6         0.1 0.1 0.1 0.1 0.1 0.1         0.1 0.1 0.1 0.1 0.1 0.1         0.1 0.1 0.1 0.1 0.1 0.1         0.1 0.1 0.1 0.1 0.1 0.1         0.1 0.1 0.1 0.1 0.1 0.1         0.1 ${cof_all} ${cof_all} ${cof_all} ${cof_all} ${cof_all}
fix     m4 all property/global coefficientFriction peratomtypepair 6         0.1 0.1 0.1 0.1 0.1 0.1         0.1 0.1 0.1 0.1 0.1 0.1         0.1 0.1 0.1 0.1 0.1 0.1         0.1 0.1 0.1 0.1 0.1 0.1         0.1 0.1 0.1 0.1 0.1 0.1         0.1 0.1 ${cof_all} ${cof_all} ${cof_all} ${cof_all}
fix     m4 all property/global coefficientFriction peratomtypepair 6         0.1 0.1 0.1 0.1 0.1 0.1         0.1 0.1 0.1 0.1 0.1 0.1         0.1 0.1 0.1 0.1 0.1 0.1         0.1 0.1 0.1 0.1 0.1 0.1         0.1 0.1 0.1 0.1 0.1 0.1         0.1 0.1 0.1 ${cof_all} ${cof_all} ${cof_all}
fix     m4 all property/global coefficientFriction peratomtypepair 6         0.1 0.1 0.1 0.1 0.1 0.1         0.1 0.1 0.1 0.1 0.1 0.1         0.1 0.1 0.1 0.1 0.1 0.1         0.1 0.1 0.1 0.1 0.1 0.1         0.1 0.1 0.1 0.1 0.1 0.1         0.1 0.1 0.1 0.1 ${cof_all} ${cof_all}
fix     m4 all property/global coefficientFriction peratomtypepair 6         0.1 0.1 0.1 0.1 0.1 0.1         0.1 0.1 0.1 0.1 0.1 0.1         0.1 0.1 0.1 0.1 0.1 0.1         0.1 0.1 0.1 0.1 0.1 0.1         0.1 0.1 0.1 0.1 0.1 0.1         0.1 0.1 0.1 0.1 0.1 ${cof_all}
fix     m4 all property/global coefficientFriction peratomtypepair 6         0.1 0.1 0.1 0.1 0.1 0.1         0.1 0.1 0.1 0.1 0.1 0.1         0.1 0.1 0.1 0.1 0.1 0.1         0.1 0.1 0.1 0.1 0.1 0.1         0.1 0.1 0.1 0.1 0.1 0.1         0.1 0.1 0.1 0.1 0.1 0.1

# Coefficient of rolling friction matrix (6x6) - using same value for all
fix     m5 all property/global coefficientRollingFriction peratomtypepair 6         ${corf_all} ${corf_all} ${corf_all} ${corf_all} ${corf_all} ${corf_all}         ${corf_all} ${corf_all} ${corf_all} ${corf_all} ${corf_all} ${corf_all}         ${corf_all} ${corf_all} ${corf_all} ${corf_all} ${corf_all} ${corf_all}         ${corf_all} ${corf_all} ${corf_all} ${corf_all} ${corf_all} ${corf_all}         ${corf_all} ${corf_all} ${corf_all} ${corf_all} ${corf_all} ${corf_all}         ${corf_all} ${corf_all} ${corf_all} ${corf_all} ${corf_all} ${corf_all}
fix     m5 all property/global coefficientRollingFriction peratomtypepair 6         0.1 ${corf_all} ${corf_all} ${corf_all} ${corf_all} ${corf_all}         ${corf_all} ${corf_all} ${corf_all} ${corf_all} ${corf_all} ${corf_all}         ${corf_all} ${corf_all} ${corf_all} ${corf_all} ${corf_all} ${corf_all}         ${corf_all} ${corf_all} ${corf_all} ${corf_all} ${corf_all} ${corf_all}         ${corf_all} ${corf_all} ${corf_all} ${corf_all} ${corf_all} ${corf_all}         ${corf_all} ${corf_all} ${corf_all} ${corf_all} ${corf_all} ${corf_all}
fix     m5 all property/global coefficientRollingFriction peratomtypepair 6         0.1 0.1 ${corf_all} ${corf_all} ${corf_all} ${corf_all}         ${corf_all} ${corf_all} ${corf_all} ${corf_all} ${corf_all} ${corf_all}         ${corf_all} ${corf_all} ${corf_all} ${corf_all} ${corf_all} ${corf_all}         ${corf_all} ${corf_all} ${corf_all} ${corf_all} ${corf_all} ${corf_all}         ${corf_all} ${corf_all} ${corf_all} ${corf_all} ${corf_all} ${corf_all}         ${corf_all} ${corf_all} ${corf_all} ${corf_all} ${corf_all} ${corf_all}
fix     m5 all property/global coefficientRollingFriction peratomtypepair 6         0.1 0.1 0.1 ${corf_all} ${corf_all} ${corf_all}         ${corf_all} ${corf_all} ${corf_all} ${corf_all} ${corf_all} ${corf_all}         ${corf_all} ${corf_all} ${corf_all} ${corf_all} ${corf_all} ${corf_all}         ${corf_all} ${corf_all} ${corf_all} ${corf_all} ${corf_all} ${corf_all}         ${corf_all} ${corf_all} ${corf_all} ${corf_all} ${corf_all} ${corf_all}         ${corf_all} ${corf_all} ${corf_all} ${corf_all} ${corf_all} ${corf_all}
fix     m5 all property/global coefficientRollingFriction peratomtypepair 6         0.1 0.1 0.1 0.1 ${corf_all} ${corf_all}         ${corf_all} ${corf_all} ${corf_all} ${corf_all} ${corf_all} ${corf_all}         ${corf_all} ${corf_all} ${corf_all} ${corf_all} ${corf_all} ${corf_all}         ${corf_all} ${corf_all} ${corf_all} ${corf_all} ${corf_all} ${corf_all}         ${corf_all} ${corf_all} ${corf_all} ${corf_all} ${corf_all} ${corf_all}         ${corf_all} ${corf_all} ${corf_all} ${corf_all} ${corf_all} ${corf_all}
fix     m5 all property/global coefficientRollingFriction peratomtypepair 6         0.1 0.1 0.1 0.1 0.1 ${corf_all}         ${corf_all} ${corf_all} ${corf_all} ${corf_all} ${corf_all} ${corf_all}         ${corf_all} ${corf_all} ${corf_all} ${corf_all} ${corf_all} ${corf_all}         ${corf_all} ${corf_all} ${corf_all} ${corf_all} ${corf_all} ${corf_all}         ${corf_all} ${corf_all} ${corf_all} ${corf_all} ${corf_all} ${corf_all}         ${corf_all} ${corf_all} ${corf_all} ${corf_all} ${corf_all} ${corf_all}
fix     m5 all property/global coefficientRollingFriction peratomtypepair 6         0.1 0.1 0.1 0.1 0.1 0.1         ${corf_all} ${corf_all} ${corf_all} ${corf_all} ${corf_all} ${corf_all}         ${corf_all} ${corf_all} ${corf_all} ${corf_all} ${corf_all} ${corf_all}         ${corf_all} ${corf_all} ${corf_all} ${corf_all} ${corf_all} ${corf_all}         ${corf_all} ${corf_all} ${corf_all} ${corf_all} ${corf_all} ${corf_all}         ${corf_all} ${corf_all} ${corf_all} ${corf_all} ${corf_all} ${corf_all}
fix     m5 all property/global coefficientRollingFriction peratomtypepair 6         0.1 0.1 0.1 0.1 0.1 0.1         0.1 ${corf_all} ${corf_all} ${corf_all} ${corf_all} ${corf_all}         ${corf_all} ${corf_all} ${corf_all} ${corf_all} ${corf_all} ${corf_all}         ${corf_all} ${corf_all} ${corf_all} ${corf_all} ${corf_all} ${corf_all}         ${corf_all} ${corf_all} ${corf_all} ${corf_all} ${corf_all} ${corf_all}         ${corf_all} ${corf_all} ${corf_all} ${corf_all} ${corf_all} ${corf_all}
fix     m5 all property/global coefficientRollingFriction peratomtypepair 6         0.1 0.1 0.1 0.1 0.1 0.1         0.1 0.1 ${corf_all} ${corf_all} ${corf_all} ${corf_all}         ${corf_all} ${corf_all} ${corf_all} ${corf_all} ${corf_all} ${corf_all}         ${corf_all} ${corf_all} ${corf_all} ${corf_all} ${corf_all} ${corf_all}         ${corf_all} ${corf_all} ${corf_all} ${corf_all} ${corf_all} ${corf_all}         ${corf_all} ${corf_all} ${corf_all} ${corf_all} ${corf_all} ${corf_all}
fix     m5 all property/global coefficientRollingFriction peratomtypepair 6         0.1 0.1 0.1 0.1 0.1 0.1         0.1 0.1 0.1 ${corf_all} ${corf_all} ${corf_all}         ${corf_all} ${corf_all} ${corf_all} ${corf_all} ${corf_all} ${corf_all}         ${corf_all} ${corf_all} ${corf_all} ${corf_all} ${corf_all} ${corf_all}         ${corf_all} ${corf_all} ${corf_all} ${corf_all} ${corf_all} ${corf_all}         ${corf_all} ${corf_all} ${corf_all} ${corf_all} ${corf_all} ${corf_all}
fix     m5 all property/global coefficientRollingFriction peratomtypepair 6         0.1 0.1 0.1 0.1 0.1 0.1         0.1 0.1 0.1 0.1 ${corf_all} ${corf_all}         ${corf_all} ${corf_all} ${corf_all} ${corf_all} ${corf_all} ${corf_all}         ${corf_all} ${corf_all} ${corf_all} ${corf_all} ${corf_all} ${corf_all}         ${corf_all} ${corf_all} ${corf_all} ${corf_all} ${corf_all} ${corf_all}         ${corf_all} ${corf_all} ${corf_all} ${corf_all} ${corf_all} ${corf_all}
fix     m5 all property/global coefficientRollingFriction peratomtypepair 6         0.1 0.1 0.1 0.1 0.1 0.1         0.1 0.1 0.1 0.1 0.1 ${corf_all}         ${corf_all} ${corf_all} ${corf_all} ${corf_all} ${corf_all} ${corf_all}         ${corf_all} ${corf_all} ${corf_all} ${corf_all} ${corf_all} ${corf_all}         ${corf_all} ${corf_all} ${corf_all} ${corf_all} ${corf_all} ${corf_all}         ${corf_all} ${corf_all} ${corf_all} ${corf_all} ${corf_all} ${corf_all}
fix     m5 all property/global coefficientRollingFriction peratomtypepair 6         0.1 0.1 0.1 0.1 0.1 0.1         0.1 0.1 0.1 0.1 0.1 0.1         ${corf_all} ${corf_all} ${corf_all} ${corf_all} ${corf_all} ${corf_all}         ${corf_all} ${corf_all} ${corf_all} ${corf_all} ${corf_all} ${corf_all}         ${corf_all} ${corf_all} ${corf_all} ${corf_all} ${corf_all} ${corf_all}         ${corf_all} ${corf_all} ${corf_all} ${corf_all} ${corf_all} ${corf_all}
fix     m5 all property/global coefficientRollingFriction peratomtypepair 6         0.1 0.1 0.1 0.1 0.1 0.1         0.1 0.1 0.1 0.1 0.1 0.1         0.1 ${corf_all} ${corf_all} ${corf_all} ${corf_all} ${corf_all}         ${corf_all} ${corf_all} ${corf_all} ${corf_all} ${corf_all} ${corf_all}         ${corf_all} ${corf_all} ${corf_all} ${corf_all} ${corf_all} ${corf_all}         ${corf_all} ${corf_all} ${corf_all} ${corf_all} ${corf_all} ${corf_all}
fix     m5 all property/global coefficientRollingFriction peratomtypepair 6         0.1 0.1 0.1 0.1 0.1 0.1         0.1 0.1 0.1 0.1 0.1 0.1         0.1 0.1 ${corf_all} ${corf_all} ${corf_all} ${corf_all}         ${corf_all} ${corf_all} ${corf_all} ${corf_all} ${corf_all} ${corf_all}         ${corf_all} ${corf_all} ${corf_all} ${corf_all} ${corf_all} ${corf_all}         ${corf_all} ${corf_all} ${corf_all} ${corf_all} ${corf_all} ${corf_all}
fix     m5 all property/global coefficientRollingFriction peratomtypepair 6         0.1 0.1 0.1 0.1 0.1 0.1         0.1 0.1 0.1 0.1 0.1 0.1         0.1 0.1 0.1 ${corf_all} ${corf_all} ${corf_all}         ${corf_all} ${corf_all} ${corf_all} ${corf_all} ${corf_all} ${corf_all}         ${corf_all} ${corf_all} ${corf_all} ${corf_all} ${corf_all} ${corf_all}         ${corf_all} ${corf_all} ${corf_all} ${corf_all} ${corf_all} ${corf_all}
fix     m5 all property/global coefficientRollingFriction peratomtypepair 6         0.1 0.1 0.1 0.1 0.1 0.1         0.1 0.1 0.1 0.1 0.1 0.1         0.1 0.1 0.1 0.1 ${corf_all} ${corf_all}         ${corf_all} ${corf_all} ${corf_all} ${corf_all} ${corf_all} ${corf_all}         ${corf_all} ${corf_all} ${corf_all} ${corf_all} ${corf_all} ${corf_all}         ${corf_all} ${corf_all} ${corf_all} ${corf_all} ${corf_all} ${corf_all}
fix     m5 all property/global coefficientRollingFriction peratomtypepair 6         0.1 0.1 0.1 0.1 0.1 0.1         0.1 0.1 0.1 0.1 0.1 0.1         0.1 0.1 0.1 0.1 0.1 ${corf_all}         ${corf_all} ${corf_all} ${corf_all} ${corf_all} ${corf_all} ${corf_all}         ${corf_all} ${corf_all} ${corf_all} ${corf_all} ${corf_all} ${corf_all}         ${corf_all} ${corf_all} ${corf_all} ${corf_all} ${corf_all} ${corf_all}
fix     m5 all property/global coefficientRollingFriction peratomtypepair 6         0.1 0.1 0.1 0.1 0.1 0.1         0.1 0.1 0.1 0.1 0.1 0.1         0.1 0.1 0.1 0.1 0.1 0.1         ${corf_all} ${corf_all} ${corf_all} ${corf_all} ${corf_all} ${corf_all}         ${corf_all} ${corf_all} ${corf_all} ${corf_all} ${corf_all} ${corf_all}         ${corf_all} ${corf_all} ${corf_all} ${corf_all} ${corf_all} ${corf_all}
fix     m5 all property/global coefficientRollingFriction peratomtypepair 6         0.1 0.1 0.1 0.1 0.1 0.1         0.1 0.1 0.1 0.1 0.1 0.1         0.1 0.1 0.1 0.1 0.1 0.1         0.1 ${corf_all} ${corf_all} ${corf_all} ${corf_all} ${corf_all}         ${corf_all} ${corf_all} ${corf_all} ${corf_all} ${corf_all} ${corf_all}         ${corf_all} ${corf_all} ${corf_all} ${corf_all} ${corf_all} ${corf_all}
fix     m5 all property/global coefficientRollingFriction peratomtypepair 6         0.1 0.1 0.1 0.1 0.1 0.1         0.1 0.1 0.1 0.1 0.1 0.1         0.1 0.1 0.1 0.1 0.1 0.1         0.1 0.1 ${corf_all} ${corf_all} ${corf_all} ${corf_all}         ${corf_all} ${corf_all} ${corf_all} ${corf_all} ${corf_all} ${corf_all}         ${corf_all} ${corf_all} ${corf_all} ${corf_all} ${corf_all} ${corf_all}
fix     m5 all property/global coefficientRollingFriction peratomtypepair 6         0.1 0.1 0.1 0.1 0.1 0.1         0.1 0.1 0.1 0.1 0.1 0.1         0.1 0.1 0.1 0.1 0.1 0.1         0.1 0.1 0.1 ${corf_all} ${corf_all} ${corf_all}         ${corf_all} ${corf_all} ${corf_all} ${corf_all} ${corf_all} ${corf_all}         ${corf_all} ${corf_all} ${corf_all} ${corf_all} ${corf_all} ${corf_all}
fix     m5 all property/global coefficientRollingFriction peratomtypepair 6         0.1 0.1 0.1 0.1 0.1 0.1         0.1 0.1 0.1 0.1 0.1 0.1         0.1 0.1 0.1 0.1 0.1 0.1         0.1 0.1 0.1 0.1 ${corf_all} ${corf_all}         ${corf_all} ${corf_all} ${corf_all} ${corf_all} ${corf_all} ${corf_all}         ${corf_all} ${corf_all} ${corf_all} ${corf_all} ${corf_all} ${corf_all}
fix     m5 all property/global coefficientRollingFriction peratomtypepair 6         0.1 0.1 0.1 0.1 0.1 0.1         0.1 0.1 0.1 0.1 0.1 0.1         0.1 0.1 0.1 0.1 0.1 0.1         0.1 0.1 0.1 0.1 0.1 ${corf_all}         ${corf_all} ${corf_all} ${corf_all} ${corf_all} ${corf_all} ${corf_all}         ${corf_all} ${corf_all} ${corf_all} ${corf_all} ${corf_all} ${corf_all}
fix     m5 all property/global coefficientRollingFriction peratomtypepair 6         0.1 0.1 0.1 0.1 0.1 0.1         0.1 0.1 0.1 0.1 0.1 0.1         0.1 0.1 0.1 0.1 0.1 0.1         0.1 0.1 0.1 0.1 0.1 0.1         ${corf_all} ${corf_all} ${corf_all} ${corf_all} ${corf_all} ${corf_all}         ${corf_all} ${corf_all} ${corf_all} ${corf_all} ${corf_all} ${corf_all}
fix     m5 all property/global coefficientRollingFriction peratomtypepair 6         0.1 0.1 0.1 0.1 0.1 0.1         0.1 0.1 0.1 0.1 0.1 0.1         0.1 0.1 0.1 0.1 0.1 0.1         0.1 0.1 0.1 0.1 0.1 0.1         0.1 ${corf_all} ${corf_all} ${corf_all} ${corf_all} ${corf_all}         ${corf_all} ${corf_all} ${corf_all} ${corf_all} ${corf_all} ${corf_all}
fix     m5 all property/global coefficientRollingFriction peratomtypepair 6         0.1 0.1 0.1 0.1 0.1 0.1         0.1 0.1 0.1 0.1 0.1 0.1         0.1 0.1 0.1 0.1 0.1 0.1         0.1 0.1 0.1 0.1 0.1 0.1         0.1 0.1 ${corf_all} ${corf_all} ${corf_all} ${corf_all}         ${corf_all} ${corf_all} ${corf_all} ${corf_all} ${corf_all} ${corf_all}
fix     m5 all property/global coefficientRollingFriction peratomtypepair 6         0.1 0.1 0.1 0.1 0.1 0.1         0.1 0.1 0.1 0.1 0.1 0.1         0.1 0.1 0.1 0.1 0.1 0.1         0.1 0.1 0.1 0.1 0.1 0.1         0.1 0.1 0.1 ${corf_all} ${corf_all} ${corf_all}         ${corf_all} ${corf_all} ${corf_all} ${corf_all} ${corf_all} ${corf_all}
fix     m5 all property/global coefficientRollingFriction peratomtypepair 6         0.1 0.1 0.1 0.1 0.1 0.1         0.1 0.1 0.1 0.1 0.1 0.1         0.1 0.1 0.1 0.1 0.1 0.1         0.1 0.1 0.1 0.1 0.1 0.1         0.1 0.1 0.1 0.1 ${corf_all} ${corf_all}         ${corf_all} ${corf_all} ${corf_all} ${corf_all} ${corf_all} ${corf_all}
fix     m5 all property/global coefficientRollingFriction peratomtypepair 6         0.1 0.1 0.1 0.1 0.1 0.1         0.1 0.1 0.1 0.1 0.1 0.1         0.1 0.1 0.1 0.1 0.1 0.1         0.1 0.1 0.1 0.1 0.1 0.1         0.1 0.1 0.1 0.1 0.1 ${corf_all}         ${corf_all} ${corf_all} ${corf_all} ${corf_all} ${corf_all} ${corf_all}
fix     m5 all property/global coefficientRollingFriction peratomtypepair 6         0.1 0.1 0.1 0.1 0.1 0.1         0.1 0.1 0.1 0.1 0.1 0.1         0.1 0.1 0.1 0.1 0.1 0.1         0.1 0.1 0.1 0.1 0.1 0.1         0.1 0.1 0.1 0.1 0.1 0.1         ${corf_all} ${corf_all} ${corf_all} ${corf_all} ${corf_all} ${corf_all}
fix     m5 all property/global coefficientRollingFriction peratomtypepair 6         0.1 0.1 0.1 0.1 0.1 0.1         0.1 0.1 0.1 0.1 0.1 0.1         0.1 0.1 0.1 0.1 0.1 0.1         0.1 0.1 0.1 0.1 0.1 0.1         0.1 0.1 0.1 0.1 0.1 0.1         0.1 ${corf_all} ${corf_all} ${corf_all} ${corf_all} ${corf_all}
fix     m5 all property/global coefficientRollingFriction peratomtypepair 6         0.1 0.1 0.1 0.1 0.1 0.1         0.1 0.1 0.1 0.1 0.1 0.1         0.1 0.1 0.1 0.1 0.1 0.1         0.1 0.1 0.1 0.1 0.1 0.1         0.1 0.1 0.1 0.1 0.1 0.1         0.1 0.1 ${corf_all} ${corf_all} ${corf_all} ${corf_all}
fix     m5 all property/global coefficientRollingFriction peratomtypepair 6         0.1 0.1 0.1 0.1 0.1 0.1         0.1 0.1 0.1 0.1 0.1 0.1         0.1 0.1 0.1 0.1 0.1 0.1         0.1 0.1 0.1 0.1 0.1 0.1         0.1 0.1 0.1 0.1 0.1 0.1         0.1 0.1 0.1 ${corf_all} ${corf_all} ${corf_all}
fix     m5 all property/global coefficientRollingFriction peratomtypepair 6         0.1 0.1 0.1 0.1 0.1 0.1         0.1 0.1 0.1 0.1 0.1 0.1         0.1 0.1 0.1 0.1 0.1 0.1         0.1 0.1 0.1 0.1 0.1 0.1         0.1 0.1 0.1 0.1 0.1 0.1         0.1 0.1 0.1 0.1 ${corf_all} ${corf_all}
fix     m5 all property/global coefficientRollingFriction peratomtypepair 6         0.1 0.1 0.1 0.1 0.1 0.1         0.1 0.1 0.1 0.1 0.1 0.1         0.1 0.1 0.1 0.1 0.1 0.1         0.1 0.1 0.1 0.1 0.1 0.1         0.1 0.1 0.1 0.1 0.1 0.1         0.1 0.1 0.1 0.1 0.1 ${corf_all}
fix     m5 all property/global coefficientRollingFriction peratomtypepair 6         0.1 0.1 0.1 0.1 0.1 0.1         0.1 0.1 0.1 0.1 0.1 0.1         0.1 0.1 0.1 0.1 0.1 0.1         0.1 0.1 0.1 0.1 0.1 0.1         0.1 0.1 0.1 0.1 0.1 0.1         0.1 0.1 0.1 0.1 0.1 0.1

# Cohesion energy density (6x6)
fix     m6 all property/global cohesionEnergyDensity peratomtypepair 6         100000  100000  100000  0       0   100000          100000  100000  100000  0       0   100000          100000  100000  100000  0       0   100000          0       0       0       0       0   0               0       0       0       0       0   0               100000  100000  100000  0       0   100000

#---------------------Define Pair Style and Walls----------------------------------------
pair_style gran model hertz tangential history cohesion sjkr
WARNING: 
	The contact model you specified is not located in any whitelist.
	Because of this the model will be run in an unoptimized version (increasing runtime by up to 20%).
	In order to optimize this model you have the following options:
		(i)  Run the genAutoExamplesWhitelist.sh script in your LIGGGHTS(R) source folder to automatically parse the input script
		(ii) Add the model combination by hand to your style_contact_model_user.whitelist that can be found in your LIGGGHTS(R) source folder
		(iii) Use the ENABLE_MODEL_* flag when building with cmake.
	If you perform one of the steps above LIGGGHTS(R) needs to be recompiled to generate the optimized code.

 (/Users/howardtu/Documents/modeling/localPackage/LIGGGHTS-PUBLIC/src/contact_models.h:365)
pair_coeff * *

# Wall boundaries
fix xwalls1 ptc wall/gran model hertz tangential history primitive type 4 xplane -10
WARNING: 
	The contact model you specified is not located in any whitelist.
	Because of this the model will be run in an unoptimized version (increasing runtime by up to 20%).
	In order to optimize this model you have the following options:
		(i)  Run the genAutoExamplesWhitelist.sh script in your LIGGGHTS(R) source folder to automatically parse the input script
		(ii) Add the model combination by hand to your style_contact_model_user.whitelist that can be found in your LIGGGHTS(R) source folder
		(iii) Use the ENABLE_MODEL_* flag when building with cmake.
	If you perform one of the steps above LIGGGHTS(R) needs to be recompiled to generate the optimized code.

 (/Users/howardtu/Documents/modeling/localPackage/LIGGGHTS-PUBLIC/src/contact_models.h:365)
fix xwalls2 ptc wall/gran model hertz tangential history primitive type 4 xplane 10
WARNING: 
	The contact model you specified is not located in any whitelist.
	Because of this the model will be run in an unoptimized version (increasing runtime by up to 20%).
	In order to optimize this model you have the following options:
		(i)  Run the genAutoExamplesWhitelist.sh script in your LIGGGHTS(R) source folder to automatically parse the input script
		(ii) Add the model combination by hand to your style_contact_model_user.whitelist that can be found in your LIGGGHTS(R) source folder
		(iii) Use the ENABLE_MODEL_* flag when building with cmake.
	If you perform one of the steps above LIGGGHTS(R) needs to be recompiled to generate the optimized code.

 (/Users/howardtu/Documents/modeling/localPackage/LIGGGHTS-PUBLIC/src/contact_models.h:365)
fix ywalls1 ptc wall/gran model hertz tangential history primitive type 4 yplane -10
WARNING: 
	The contact model you specified is not located in any whitelist.
	Because of this the model will be run in an unoptimized version (increasing runtime by up to 20%).
	In order to optimize this model you have the following options:
		(i)  Run the genAutoExamplesWhitelist.sh script in your LIGGGHTS(R) source folder to automatically parse the input script
		(ii) Add the model combination by hand to your style_contact_model_user.whitelist that can be found in your LIGGGHTS(R) source folder
		(iii) Use the ENABLE_MODEL_* flag when building with cmake.
	If you perform one of the steps above LIGGGHTS(R) needs to be recompiled to generate the optimized code.

 (/Users/howardtu/Documents/modeling/localPackage/LIGGGHTS-PUBLIC/src/contact_models.h:365)
fix ywalls2 ptc wall/gran model hertz tangential history primitive type 4 yplane 10
WARNING: 
	The contact model you specified is not located in any whitelist.
	Because of this the model will be run in an unoptimized version (increasing runtime by up to 20%).
	In order to optimize this model you have the following options:
		(i)  Run the genAutoExamplesWhitelist.sh script in your LIGGGHTS(R) source folder to automatically parse the input script
		(ii) Add the model combination by hand to your style_contact_model_user.whitelist that can be found in your LIGGGHTS(R) source folder
		(iii) Use the ENABLE_MODEL_* flag when building with cmake.
	If you perform one of the steps above LIGGGHTS(R) needs to be recompiled to generate the optimized code.

 (/Users/howardtu/Documents/modeling/localPackage/LIGGGHTS-PUBLIC/src/contact_models.h:365)
fix zwalls1 ptc wall/gran model hertz tangential history primitive type 4 zplane 0
WARNING: 
	The contact model you specified is not located in any whitelist.
	Because of this the model will be run in an unoptimized version (increasing runtime by up to 20%).
	In order to optimize this model you have the following options:
		(i)  Run the genAutoExamplesWhitelist.sh script in your LIGGGHTS(R) source folder to automatically parse the input script
		(ii) Add the model combination by hand to your style_contact_model_user.whitelist that can be found in your LIGGGHTS(R) source folder
		(iii) Use the ENABLE_MODEL_* flag when building with cmake.
	If you perform one of the steps above LIGGGHTS(R) needs to be recompiled to generate the optimized code.

 (/Users/howardtu/Documents/modeling/localPackage/LIGGGHTS-PUBLIC/src/contact_models.h:365)
fix zwalls2 ptc wall/gran model hertz tangential history primitive type 4 zplane 75
WARNING: 
	The contact model you specified is not located in any whitelist.
	Because of this the model will be run in an unoptimized version (increasing runtime by up to 20%).
	In order to optimize this model you have the following options:
		(i)  Run the genAutoExamplesWhitelist.sh script in your LIGGGHTS(R) source folder to automatically parse the input script
		(ii) Add the model combination by hand to your style_contact_model_user.whitelist that can be found in your LIGGGHTS(R) source folder
		(iii) Use the ENABLE_MODEL_* flag when building with cmake.
	If you perform one of the steps above LIGGGHTS(R) needs to be recompiled to generate the optimized code.

 (/Users/howardtu/Documents/modeling/localPackage/LIGGGHTS-PUBLIC/src/contact_models.h:365)

#---------------------Apply NVE Integration----------------------------------------
fix integr all nve/sphere

# Warn if timestep > 10% of Rayleigh time or 10% of Hertz time
fix ts_check all check/timestep/gran 1000 0.1 0.1 warn yes

#------------------------Output Settings------------------------------------------------------
# Compute forces and positions for different layers
compute        ker    all    erotate/sphere            # Compute the rotational kinetic energy of all particles
compute        frc    ghost  reduce sum fz             # Total force in Z of ghost layer picograms * micrometers / microsecond^2 (nN) Layer that compacts the SE
compute        frc1   cc1    reduce sum fz             # Total force in Z of cc1 (nano Newtons) Layer that compacts composite cathode
compute        posw   ghost  reduce ave z              # Position in Z of ghost (micro meters)
compute        posw1  cc1    reduce ave z              # Position in Z of cc1 (micro meters)

variable       prs    equal  -(c_frc)*2.5e-6    # Pressure on ghost in MPa (force(nN)/400area(um^2))
variable       prs1   equal  -(c_frc1)*2.5e-6   # Pressure on cc1 in unit of MPa
variable       posz   equal  (c_posw)          # Position in Z of ghost (micro meters)
variable       posz1  equal  (c_posw1)         # Position in Z of cc1 (micro meters)

variable       ts_rayleigh equal f_ts_check[1]
variable       ts_hertz    equal f_ts_check[2]
variable       ts_skin     equal f_ts_check[3]

thermo_style    custom step atoms ke c_ker vol v_prs c_posw v_prs1 c_posw1 v_ts_rayleigh v_ts_hertz v_ts_skin
thermo          1000
thermo_modify   lost ignore norm no

# Optional: Dump for visualization
dump    dmp_final all custom 50000 post_c/compact_*.txt id type x y z vx vy vz fx fy fz omegax omegay omegaz radius

#------------------------Compaction Process------------------------------------------------------
fix 3 ghost move linear 0 0 0.2
fix 4 cc2 move linear 0 0 0 # Fixing top

### Run calculation
# 1. Run first period: move ghost up until pressure growth
label loop1
  run   10000
WARNING: One or more atoms are time integrated more than once (/Users/howardtu/Documents/modeling/localPackage/LIGGGHTS-PUBLIC/src/modify.cpp:304)
Setting up run at Tue Sep 16 18:27:03 2025

Memory usage per processor = 6.49502 Mbytes
    Step    Atoms         KinEng            ker         Volume            prs           posw           prs1          posw1       ts_rayle       ts_hertz        ts_skin 
       0     6975              0              0          30800             -0           37.5             -0            0.5              0              0              0 
    1000     6975      4.1887902              0          30800             -0         37.501             -0            0.5    0.017916297   0.0018338548          0.002 
    2000     6975      4.1887902              0          30800             -0         37.502             -0            0.5    0.017916297   0.0018338548          0.002 
    3000     6975      4.1887902              0          30800             -0         37.503             -0            0.5    0.017916297   0.0018338548          0.002 
    4000     6975      4.1887902              0          30800             -0         37.504             -0            0.5    0.017916297   0.0018338548          0.002 
    5000     6975      4.1887902              0          30800             -0         37.505             -0            0.5    0.017916297   0.0018338548          0.002 
    6000     6975      4.1887902              0          30800             -0         37.506             -0            0.5    0.017916297   0.0018338548          0.002 
    7000     6975      4.1887902              0          30800             -0         37.507             -0            0.5    0.017916297   0.0018338548          0.002 
    8000     6975      4.1887902              0          30800             -0         37.508             -0            0.5    0.017916297   0.0018338548          0.002 
    9000     6975      4.1887902              0          30800             -0         37.509             -0            0.5    0.017916297   0.0018338548          0.002 
   10000     6975      4.1887902              0          30800             -0          37.51             -0            0.5    0.017916297   0.0018338548          0.002 
Loop time of 1.11529 on 4 procs for 10000 steps with 6975 atoms, finish time Tue Sep 16 18:27:04 2025


Pair  time (%) = 0.189975 (17.0337)
Neigh time (%) = 0.0314622 (2.821)
Comm  time (%) = 0.326367 (29.263)
Outpt time (%) = 0.000433 (0.038824)
Other time (%) = 0.567051 (50.8434)

Nlocal:    1743.75 ave 1843 max 1661 min
Histogram: 1 0 0 1 0 1 0 0 0 1
Nghost:    374.75 ave 645 max 183 min
Histogram: 1 1 0 0 0 1 0 0 0 1
Neighs:    609.5 ave 805 max 37 min
Histogram: 1 0 0 0 0 0 0 0 0 3

Total # of neighbors = 2438
Ave neighs/atom = 0.349534
Neighbor list builds = 19
Dangerous builds = 0
  if "${prs} > ${tarp}" then "jump SELF loop2"
jump SELF loop1
  run   10000
WARNING: One or more atoms are time integrated more than once (/Users/howardtu/Documents/modeling/localPackage/LIGGGHTS-PUBLIC/src/modify.cpp:304)
Setting up run at Tue Sep 16 18:27:04 2025

Memory usage per processor = 6.49503 Mbytes
    Step    Atoms         KinEng            ker         Volume            prs           posw           prs1          posw1       ts_rayle       ts_hertz        ts_skin 
   10000     6975      4.1887902              0          30800             -0          37.51             -0            0.5    0.017916297   0.0018338548          0.002 
   11000     6975      4.1887902              0          30800             -0         37.511             -0            0.5    0.017916297   0.0018338548          0.002 
   12000     6975      4.1887902              0          30800             -0         37.512             -0            0.5    0.017916297   0.0018338548          0.002 
   13000     6975      4.1887902              0          30800             -0         37.513             -0            0.5    0.017916297   0.0018338548          0.002 
   14000     6975      4.1887902              0          30800             -0         37.514             -0            0.5    0.017916297   0.0018338548          0.002 
   15000     6975      4.1887902              0          30800             -0         37.515             -0            0.5    0.017916297   0.0018338548          0.002 
   16000     6975      4.1887902              0          30800             -0         37.516             -0            0.5    0.017916297   0.0018338548          0.002 
   17000     6975      4.1887902              0          30800             -0         37.517             -0            0.5    0.017916297   0.0018338548          0.002 
   18000     6975      4.1887902              0          30800             -0         37.518             -0            0.5    0.017916297   0.0018338548          0.002 
   19000     6975      4.1887902              0          30800             -0         37.519             -0            0.5    0.017916297   0.0018338548          0.002 
   20000     6975      4.1887902              0          30800             -0          37.52             -0            0.5    0.017916297   0.0018338548          0.002 
Loop time of 1.11675 on 4 procs for 10000 steps with 6975 atoms, finish time Tue Sep 16 18:27:05 2025


Pair  time (%) = 0.189876 (17.0025)
Neigh time (%) = 0.031443 (2.81558)
Comm  time (%) = 0.326832 (29.2663)
Outpt time (%) = 0.0004345 (0.0389075)
Other time (%) = 0.568167 (50.8767)

Nlocal:    1743.75 ave 1843 max 1661 min
Histogram: 1 0 0 1 0 1 0 0 0 1
Nghost:    374.75 ave 645 max 183 min
Histogram: 1 1 0 0 0 1 0 0 0 1
Neighs:    609.5 ave 805 max 37 min
Histogram: 1 0 0 0 0 0 0 0 0 3

Total # of neighbors = 2438
Ave neighs/atom = 0.349534
Neighbor list builds = 19
Dangerous builds = 0
  if "${prs} > ${tarp}" then "jump SELF loop2"
jump SELF loop1
  run   10000
WARNING: One or more atoms are time integrated more than once (/Users/howardtu/Documents/modeling/localPackage/LIGGGHTS-PUBLIC/src/modify.cpp:304)
Setting up run at Tue Sep 16 18:27:05 2025

Memory usage per processor = 6.49503 Mbytes
    Step    Atoms         KinEng            ker         Volume            prs           posw           prs1          posw1       ts_rayle       ts_hertz        ts_skin 
   20000     6975      4.1887902              0          30800             -0          37.52             -0            0.5    0.017916297   0.0018338548          0.002 
   21000     6975      4.1887902              0          30800             -0         37.521             -0            0.5    0.017916297   0.0018338548          0.002 
   22000     6975      4.1887902              0          30800             -0         37.522             -0            0.5    0.017916297   0.0018338548          0.002 
   23000     6975      4.1887902              0          30800             -0         37.523             -0            0.5    0.017916297   0.0018338548          0.002 
   24000     6975      4.1887902              0          30800             -0         37.524             -0            0.5    0.017916297   0.0018338548          0.002 
   25000     6975      4.1887902              0          30800             -0         37.525             -0            0.5    0.017916297   0.0018338548          0.002 
   26000     6975      4.1887902              0          30800             -0         37.526             -0            0.5    0.017916297   0.0018338548          0.002 
   27000     6975      4.1887902              0          30800             -0         37.527             -0            0.5    0.017916297   0.0018338548          0.002 
   28000     6975      4.1887902              0          30800             -0         37.528             -0            0.5    0.017916297   0.0018338548          0.002 
   29000     6975      4.1887902              0          30800             -0         37.529             -0            0.5    0.017916297   0.0018338548          0.002 
   30000     6975      4.1887902              0          30800             -0          37.53             -0            0.5    0.017916297   0.0018338548          0.002 
Loop time of 1.11341 on 4 procs for 10000 steps with 6975 atoms, finish time Tue Sep 16 18:27:06 2025


Pair  time (%) = 0.189703 (17.038)
Neigh time (%) = 0.0313647 (2.81699)
Comm  time (%) = 0.324752 (29.1673)
Outpt time (%) = 0.000401 (0.0360154)
Other time (%) = 0.567192 (50.9417)

Nlocal:    1743.75 ave 1843 max 1661 min
Histogram: 1 0 0 1 0 1 0 0 0 1
Nghost:    374.75 ave 645 max 183 min
Histogram: 1 1 0 0 0 1 0 0 0 1
Neighs:    609.5 ave 805 max 37 min
Histogram: 1 0 0 0 0 0 0 0 0 3

Total # of neighbors = 2438
Ave neighs/atom = 0.349534
Neighbor list builds = 19
Dangerous builds = 0
  if "${prs} > ${tarp}" then "jump SELF loop2"
jump SELF loop1
  run   10000
WARNING: One or more atoms are time integrated more than once (/Users/howardtu/Documents/modeling/localPackage/LIGGGHTS-PUBLIC/src/modify.cpp:304)
Setting up run at Tue Sep 16 18:27:06 2025

Memory usage per processor = 6.49503 Mbytes
    Step    Atoms         KinEng            ker         Volume            prs           posw           prs1          posw1       ts_rayle       ts_hertz        ts_skin 
   30000     6975      4.1887902              0          30800             -0          37.53             -0            0.5    0.017916297   0.0018338548          0.002 
   31000     6975      4.1887902              0          30800             -0         37.531             -0            0.5    0.017916297   0.0018338548          0.002 
   32000     6975      4.1887902              0          30800             -0         37.532             -0            0.5    0.017916297   0.0018338548          0.002 
   33000     6975      4.1887902              0          30800             -0         37.533             -0            0.5    0.017916297   0.0018338548          0.002 
   34000     6975      4.1887902              0          30800             -0         37.534             -0            0.5    0.017916297   0.0018338548          0.002 
   35000     6975      4.1887902              0          30800             -0         37.535             -0            0.5    0.017916297   0.0018338548          0.002 
   36000     6975      4.1887902              0          30800             -0         37.536             -0            0.5    0.017916297   0.0018338548          0.002 
   37000     6975      4.1887902              0          30800             -0         37.537             -0            0.5    0.017916297   0.0018338548          0.002 
   38000     6975      4.1887902              0          30800             -0         37.538             -0            0.5    0.017916297   0.0018338548          0.002 
   39000     6975      4.1887902              0          30800             -0         37.539             -0            0.5    0.017916297   0.0018338548          0.002 
   40000     6975      4.1887902              0          30800             -0          37.54             -0            0.5    0.017916297   0.0018338548          0.002 
Loop time of 1.11057 on 4 procs for 10000 steps with 6975 atoms, finish time Tue Sep 16 18:27:07 2025


Pair  time (%) = 0.189141 (17.031)
Neigh time (%) = 0.0313685 (2.82454)
Comm  time (%) = 0.324704 (29.2376)
Outpt time (%) = 0.00040425 (0.0364002)
Other time (%) = 0.564951 (50.8704)

Nlocal:    1743.75 ave 1843 max 1661 min
Histogram: 1 0 0 1 0 1 0 0 0 1
Nghost:    374.75 ave 645 max 183 min
Histogram: 1 1 0 0 0 1 0 0 0 1
Neighs:    609.5 ave 805 max 37 min
Histogram: 1 0 0 0 0 0 0 0 0 3

Total # of neighbors = 2438
Ave neighs/atom = 0.349534
Neighbor list builds = 19
Dangerous builds = 0
  if "${prs} > ${tarp}" then "jump SELF loop2"
jump SELF loop1
  run   10000
WARNING: One or more atoms are time integrated more than once (/Users/howardtu/Documents/modeling/localPackage/LIGGGHTS-PUBLIC/src/modify.cpp:304)
Setting up run at Tue Sep 16 18:27:07 2025

Memory usage per processor = 6.49503 Mbytes
    Step    Atoms         KinEng            ker         Volume            prs           posw           prs1          posw1       ts_rayle       ts_hertz        ts_skin 
   40000     6975      4.1887902              0          30800             -0          37.54             -0            0.5    0.017916297   0.0018338548          0.002 
   41000     6975      4.1887902              0          30800             -0         37.541             -0            0.5    0.017916297   0.0018338548          0.002 
   42000     6975      4.1887902              0          30800             -0         37.542             -0            0.5    0.017916297   0.0018338548          0.002 
   43000     6975      4.1887902              0          30800             -0         37.543             -0            0.5    0.017916297   0.0018338548          0.002 
   44000     6975      4.1887902              0          30800             -0         37.544             -0            0.5    0.017916297   0.0018338548          0.002 
   45000     6975      4.1887902              0          30800             -0         37.545             -0            0.5    0.017916297   0.0018338548          0.002 
   46000     6975      4.1887902              0          30800             -0         37.546             -0            0.5    0.017916297   0.0018338548          0.002 
   47000     6975      4.1887902              0          30800             -0         37.547             -0            0.5    0.017916297   0.0018338548          0.002 
   48000     6975      4.1887902              0          30800             -0         37.548             -0            0.5    0.017916297   0.0018338548          0.002 
   49000     6975      4.1887902              0          30800             -0         37.549             -0            0.5    0.017916297   0.0018338548          0.002 
   50000     6975      4.1887902              0          30800             -0          37.55             -0            0.5    0.017916297   0.0018338548          0.002 
Loop time of 1.11587 on 4 procs for 10000 steps with 6975 atoms, finish time Tue Sep 16 18:27:08 2025


Pair  time (%) = 0.189908 (17.0189)
Neigh time (%) = 0.0310255 (2.78039)
Comm  time (%) = 0.32564 (29.1827)
Outpt time (%) = 0.002284 (0.204684)
Other time (%) = 0.56701 (50.8134)

Nlocal:    1743.75 ave 1843 max 1661 min
Histogram: 1 0 0 1 0 1 0 0 0 1
Nghost:    374.75 ave 645 max 183 min
Histogram: 1 1 0 0 0 1 0 0 0 1
Neighs:    609.5 ave 805 max 37 min
Histogram: 1 0 0 0 0 0 0 0 0 3

Total # of neighbors = 2438
Ave neighs/atom = 0.349534
Neighbor list builds = 19
Dangerous builds = 0
  if "${prs} > ${tarp}" then "jump SELF loop2"
jump SELF loop1
  run   10000
WARNING: One or more atoms are time integrated more than once (/Users/howardtu/Documents/modeling/localPackage/LIGGGHTS-PUBLIC/src/modify.cpp:304)
Setting up run at Tue Sep 16 18:27:08 2025

Memory usage per processor = 6.49503 Mbytes
    Step    Atoms         KinEng            ker         Volume            prs           posw           prs1          posw1       ts_rayle       ts_hertz        ts_skin 
   50000     6975      4.1887902              0          30800             -0          37.55             -0            0.5    0.017916297   0.0018338548          0.002 
   51000     6975      4.1887902              0          30800             -0         37.551             -0            0.5    0.017916297   0.0018338548          0.002 
   52000     6975      4.1887902              0          30800             -0         37.552             -0            0.5    0.017916297   0.0018338548          0.002 
   53000     6975      4.1887902              0          30800             -0         37.553             -0            0.5    0.017916297   0.0018338548          0.002 
   54000     6975      4.1887902              0          30800             -0         37.554             -0            0.5    0.017916297   0.0018338548          0.002 
   55000     6975      4.1887902              0          30800             -0         37.555             -0            0.5    0.017916297   0.0018338548          0.002 
   56000     6975      4.1887902              0          30800             -0         37.556             -0            0.5    0.017916297   0.0018338548          0.002 
   57000     6975      4.1887902              0          30800             -0         37.557             -0            0.5    0.017916297   0.0018338548          0.002 
   58000     6975      4.1887902              0          30800             -0         37.558             -0            0.5    0.017916297   0.0018338548          0.002 
   59000     6975      4.1887902              0          30800             -0         37.559             -0            0.5    0.017916297   0.0018338548          0.002 
   60000     6975      4.1887902              0          30800             -0          37.56             -0            0.5    0.017916297   0.0018338548          0.002 
Loop time of 1.11484 on 4 procs for 10000 steps with 6975 atoms, finish time Tue Sep 16 18:27:09 2025


Pair  time (%) = 0.189847 (17.0291)
Neigh time (%) = 0.0314605 (2.82197)
Comm  time (%) = 0.325066 (29.1581)
Outpt time (%) = 0.00039975 (0.0358572)
Other time (%) = 0.568067 (50.955)

Nlocal:    1743.75 ave 1843 max 1661 min
Histogram: 1 0 0 1 0 1 0 0 0 1
Nghost:    374.75 ave 645 max 183 min
Histogram: 1 1 0 0 0 1 0 0 0 1
Neighs:    609.5 ave 805 max 37 min
Histogram: 1 0 0 0 0 0 0 0 0 3

Total # of neighbors = 2438
Ave neighs/atom = 0.349534
Neighbor list builds = 19
Dangerous builds = 0
  if "${prs} > ${tarp}" then "jump SELF loop2"
jump SELF loop1
  run   10000
WARNING: One or more atoms are time integrated more than once (/Users/howardtu/Documents/modeling/localPackage/LIGGGHTS-PUBLIC/src/modify.cpp:304)
Setting up run at Tue Sep 16 18:27:09 2025

Memory usage per processor = 6.49503 Mbytes
    Step    Atoms         KinEng            ker         Volume            prs           posw           prs1          posw1       ts_rayle       ts_hertz        ts_skin 
   60000     6975      4.1887902              0          30800             -0          37.56             -0            0.5    0.017916297   0.0018338548          0.002 
   61000     6975      4.1887902              0          30800             -0         37.561             -0            0.5    0.017916297   0.0018338548          0.002 
   62000     6975      4.1887902              0          30800             -0         37.562             -0            0.5    0.017916297   0.0018338548          0.002 
   63000     6975      4.1887902              0          30800             -0         37.563             -0            0.5    0.017916297   0.0018338548          0.002 
   64000     6975      4.1887902              0          30800             -0         37.564             -0            0.5    0.017916297   0.0018338548          0.002 
   65000     6975      4.1887902              0          30800             -0         37.565             -0            0.5    0.017916297   0.0018338548          0.002 
   66000     6975      4.1887902              0          30800             -0         37.566             -0            0.5    0.017916297   0.0018338548          0.002 
   67000     6975      4.1887902              0          30800             -0         37.567             -0            0.5    0.017916297   0.0018338548          0.002 
   68000     6975      4.1887902              0          30800             -0         37.568             -0            0.5    0.017916297   0.0018338548          0.002 
   69000     6975      4.1887902              0          30800             -0         37.569             -0            0.5    0.017916297   0.0018338548          0.002 
   70000     6975      4.1887902              0          30800             -0          37.57             -0            0.5    0.017916297   0.0018338548          0.002 
Loop time of 1.11458 on 4 procs for 10000 steps with 6975 atoms, finish time Tue Sep 16 18:27:10 2025


Pair  time (%) = 0.18988 (17.036)
Neigh time (%) = 0.0312185 (2.80092)
Comm  time (%) = 0.325954 (29.2445)
Outpt time (%) = 0.0003995 (0.0358431)
Other time (%) = 0.567129 (50.8827)

Nlocal:    1743.75 ave 1843 max 1661 min
Histogram: 1 0 0 1 0 1 0 0 0 1
Nghost:    374.75 ave 645 max 183 min
Histogram: 1 1 0 0 0 1 0 0 0 1
Neighs:    609.5 ave 805 max 37 min
Histogram: 1 0 0 0 0 0 0 0 0 3

Total # of neighbors = 2438
Ave neighs/atom = 0.349534
Neighbor list builds = 19
Dangerous builds = 0
  if "${prs} > ${tarp}" then "jump SELF loop2"
jump SELF loop1
  run   10000
WARNING: One or more atoms are time integrated more than once (/Users/howardtu/Documents/modeling/localPackage/LIGGGHTS-PUBLIC/src/modify.cpp:304)
Setting up run at Tue Sep 16 18:27:10 2025

Memory usage per processor = 6.49503 Mbytes
    Step    Atoms         KinEng            ker         Volume            prs           posw           prs1          posw1       ts_rayle       ts_hertz        ts_skin 
   70000     6975      4.1887902              0          30800             -0          37.57             -0            0.5    0.017916297   0.0018338548          0.002 
   71000     6975      4.1887902              0          30800             -0         37.571             -0            0.5    0.017916297   0.0018338548          0.002 
   72000     6975      4.1887902              0          30800             -0         37.572             -0            0.5    0.017916297   0.0018338548          0.002 
   73000     6975      4.1887902              0          30800             -0         37.573             -0            0.5    0.017916297   0.0018338548          0.002 
   74000     6975      4.1887902              0          30800             -0         37.574             -0            0.5    0.017916297   0.0018338548          0.002 
   75000     6975      4.1887902              0          30800             -0         37.575             -0            0.5    0.017916297   0.0018338548          0.002 
   76000     6975      4.1887902              0          30800             -0         37.576             -0            0.5    0.017916297   0.0018338548          0.002 
   77000     6975      4.1887902              0          30800             -0         37.577             -0            0.5    0.017916297   0.0018338548          0.002 
   78000     6975      4.1887902              0          30800             -0         37.578             -0            0.5    0.017916297   0.0018338548          0.002 
   79000     6975      4.1887902              0          30800             -0         37.579             -0            0.5    0.017916297   0.0018338548          0.002 
   80000     6975      4.1887902              0          30800             -0          37.58             -0            0.5    0.017916297   0.0018338548          0.002 
Loop time of 1.11668 on 4 procs for 10000 steps with 6975 atoms, finish time Tue Sep 16 18:27:12 2025


Pair  time (%) = 0.189839 (17.0003)
Neigh time (%) = 0.0313052 (2.80342)
Comm  time (%) = 0.326057 (29.1988)
Outpt time (%) = 0.00040475 (0.0362458)
[...]
 1851000     6975      150.31992      9.8105806          30800  0.00055746892         39.351             -0            0.5    0.017916297   0.0019714842   0.0028719162 
 1852000     6975       150.3711       9.806196          30800  0.00054077165         39.352             -0            0.5    0.017916297   0.0019721807   0.0028769928 
 1853000     6975      150.44853      9.8114791          30800  0.00052581954         39.353             -0            0.5    0.017916297   0.0019729102   0.0028823179 
 1854000     6975      150.55027      9.8209513          30800  0.00052104937         39.354             -0            0.5    0.017916297    0.001973697   0.0028880697 
 1855000     6975      150.62711      9.8286419          30800  0.00051233279         39.355             -0            0.5    0.017916297   0.0019744989   0.0028939412 
 1856000     6975       150.6917      9.8301028          30800  0.00049729954         39.356             -0            0.5    0.017916297    0.001975294   0.0028997726 
 1857000     6975      150.76064      9.8406365          30800  0.00047776299         39.357             -0            0.5    0.017916297   0.0019760269   0.0029051567 
 1858000     6975      150.79519      9.8530948          30800  0.00051635526         39.358             -0            0.5    0.017916297   0.0019767209   0.0029102617 
 1859000     6975      150.86552      9.8625638          30800  0.00061415083         39.359             -0            0.5    0.017916297   0.0019774487    0.002915623 
 1860000     6975       150.9786      9.8716388          30800  0.00067408089          39.36             -0            0.5    0.017916297   0.0019784464   0.0029229855 
Loop time of 3.88254 on 4 procs for 10000 steps with 6975 atoms, finish time Tue Sep 16 18:33:27 2025


Pair  time (%) = 0.818809 (21.0895)
Neigh time (%) = 0.0458015 (1.17968)
Comm  time (%) = 0.377568 (9.72476)
Outpt time (%) = 0.00047 (0.0121055)
Other time (%) = 2.63989 (67.9939)

Nlocal:    1743.75 ave 2152 max 1261 min
Histogram: 1 0 0 0 0 1 1 0 0 1
Nghost:    354 ave 756 max 183 min
Histogram: 2 1 0 0 0 0 0 0 0 1
Neighs:    1014.5 ave 2417 max 37 min
Histogram: 1 0 0 2 0 0 0 0 0 1

Total # of neighbors = 4058
Ave neighs/atom = 0.581792
Neighbor list builds = 28
Dangerous builds = 0
  if "${prs} > ${tarp}" then "jump SELF loop2"
jump SELF loop1
  run   10000
WARNING: One or more atoms are time integrated more than once (/Users/howardtu/Documents/modeling/localPackage/LIGGGHTS-PUBLIC/src/modify.cpp:304)
Setting up run at Tue Sep 16 18:33:27 2025

Memory usage per processor = 6.69151 Mbytes
    Step    Atoms         KinEng            ker         Volume            prs           posw           prs1          posw1       ts_rayle       ts_hertz        ts_skin 
 1860000     6975       150.9786      9.8716388          30800  0.00067276317          39.36             -0            0.5    0.017916297   0.0019784464   0.0029229855 
 1861000     6975      151.13343       9.884661          30800  0.00065225709         39.361             -0            0.5    0.017916297   0.0019793011   0.0029293052 
 1862000     6975      151.20211      9.8940529          30800   0.0005727178         39.362             -0            0.5    0.017916297   0.0019801363   0.0029354907 
 1863000     6975      151.12135      9.8789889          30800  0.00048750092         39.363             -0            0.5    0.017916297   0.0019808563   0.0029408316 
 1864000     6975      151.07785      9.8753106          30800  0.00046316908         39.364             -0            0.5    0.017916297    0.001981491   0.0029455456 
 1865000     6975      151.06533      9.8883231          30800  0.00047085747         39.365             -0            0.5    0.017916297   0.0019821069   0.0029501264 
 1866000     6975      151.07646      9.9080979          30800  0.00048180136         39.366             -0            0.5    0.017916297   0.0019826739   0.0029543482 
 1867000     6975       151.0675      9.9275128          30800  0.00048680718         39.367             -0            0.5    0.017916297   0.0019831772   0.0029581002 
 1868000     6975      151.10596      9.9430062          30800  0.00048751293         39.368             -0            0.5    0.017916297   0.0019836303   0.0029614811 
 1869000     6975       151.1362      9.9433203          30800  0.00048609655         39.369             -0            0.5    0.017916297    0.001984039   0.0029645328 
 1870000     6975      151.19896      9.9524304          30800   0.0005240624          39.37             -0            0.5    0.017916297   0.0019844304   0.0029674583 
Loop time of 3.90389 on 4 procs for 10000 steps with 6975 atoms, finish time Tue Sep 16 18:33:31 2025


Pair  time (%) = 0.823188 (21.0864)
Neigh time (%) = 0.047206 (1.2092)
Comm  time (%) = 0.377453 (9.66864)
Outpt time (%) = 0.00046825 (0.0119945)
Other time (%) = 2.65557 (68.0238)

Nlocal:    1743.75 ave 2152 max 1261 min
Histogram: 1 0 0 0 0 1 1 0 0 1
Nghost:    354 ave 756 max 183 min
Histogram: 2 1 0 0 0 0 0 0 0 1
Neighs:    1019.25 ave 2436 max 37 min
Histogram: 1 0 0 2 0 0 0 0 0 1

Total # of neighbors = 4077
Ave neighs/atom = 0.584516
Neighbor list builds = 29
Dangerous builds = 0
  if "${prs} > ${tarp}" then "jump SELF loop2"
jump SELF loop1
  run   10000
WARNING: One or more atoms are time integrated more than once (/Users/howardtu/Documents/modeling/localPackage/LIGGGHTS-PUBLIC/src/modify.cpp:304)
Setting up run at Tue Sep 16 18:33:31 2025

Memory usage per processor = 6.69151 Mbytes
    Step    Atoms         KinEng            ker         Volume            prs           posw           prs1          posw1       ts_rayle       ts_hertz        ts_skin 
 1870000     6975      151.19896      9.9524304          30800  0.00052333929          39.37             -0            0.5    0.017916297   0.0019844304   0.0029674583 
 1871000     6975      151.29629      9.9693455          30800  0.00060133882         39.371             -0            0.5    0.017916297   0.0019847967   0.0029701979 
 1872000     6975      151.43594      9.9916848          30800  0.00071337563         39.372             -0            0.5    0.017916297   0.0019851686   0.0029729818 
 1873000     6975      151.62373       10.01314          30800  0.00080951114         39.373             -0            0.5    0.017916297     0.00198559   0.0029761387 
 1874000     6975      151.82278      10.020254          30800  0.00088154374         39.374             -0            0.5    0.017916297   0.0019860527   0.0029796079 
 1875000     6975      151.89273      10.002116          30800  0.00092543939         39.375             -0            0.5    0.017916297   0.0019865447   0.0029833001 
 1876000     6975       152.0559      9.9938978          30800   0.0009469286         39.376             -0            0.5    0.017916297   0.0019869983   0.0029867081 
 1877000     6975      152.27078      9.9943133          30800   0.0009665282         39.377             -0            0.5    0.017916297     0.00198735   0.0029893517 
 1878000     6975      152.50003      10.000553          30800  0.00098145297         39.378             -0            0.5    0.017916297   0.0019876925    0.002991929 
 1879000     6975      152.65147      9.9904475          30800  0.00098474306         39.379             -0            0.5    0.017916297   0.0019880333   0.0029944946 
 1880000     6975      152.76058      9.9695899          30800   0.0009748338          39.38             -0            0.5    0.017916297    0.001988268   0.0029962626 
Loop time of 3.93129 on 4 procs for 10000 steps with 6975 atoms, finish time Tue Sep 16 18:33:35 2025


Pair  time (%) = 0.829869 (21.1093)
Neigh time (%) = 0.046982 (1.19508)
Comm  time (%) = 0.378009 (9.61541)
Outpt time (%) = 0.00048025 (0.0122161)
Other time (%) = 2.67595 (68.068)

Nlocal:    1743.75 ave 2152 max 1261 min
Histogram: 1 0 0 0 0 1 1 0 0 1
Nghost:    354 ave 756 max 183 min
Histogram: 2 1 0 0 0 0 0 0 0 1
Neighs:    1025.25 ave 2460 max 37 min
Histogram: 1 0 0 2 0 0 0 0 0 1

Total # of neighbors = 4101
Ave neighs/atom = 0.587957
Neighbor list builds = 29
Dangerous builds = 0
  if "${prs} > ${tarp}" then "jump SELF loop2"
jump SELF loop1
  run   10000
WARNING: One or more atoms are time integrated more than once (/Users/howardtu/Documents/modeling/localPackage/LIGGGHTS-PUBLIC/src/modify.cpp:304)
Setting up run at Tue Sep 16 18:33:35 2025

Memory usage per processor = 6.69151 Mbytes
    Step    Atoms         KinEng            ker         Volume            prs           posw           prs1          posw1       ts_rayle       ts_hertz        ts_skin 
 1880000     6975      152.76058      9.9695899          30800   0.0009729757          39.38             -0            0.5    0.017916297    0.001988268   0.0029962626 
 1881000     6975       152.8303      9.9787984          30800  0.00096700447         39.381             -0            0.5    0.017916297   0.0019885135   0.0029981133 
 1882000     6975       152.9812      9.9828367          30800  0.00097247455         39.382             -0            0.5    0.017916297   0.0019888166   0.0030003982 
 1883000     6975      153.17922      9.9963659          30800  0.00099621395         39.383             -0            0.5    0.017916297   0.0019891083   0.0030025997 
 1884000     6975      153.41274      10.021596          30800   0.0010156216         39.384             -0            0.5    0.017916297   0.0019893307   0.0030042786 
 1885000     6975      153.64476      10.031747          30800    0.001038598         39.385             -0            0.5    0.017916297    0.001989455   0.0030052174 
 1886000     6975      153.79474      10.023039          30800   0.0010389917         39.386             -0            0.5    0.017916297   0.0019894907   0.0030054871 
 1887000     6975      153.97473      10.027595          30800   0.0010233102         39.387             -0            0.5    0.017916297   0.0019894647   0.0030052906 
 1888000     6975      154.17387      10.042148          30800  0.00099553271         39.388             -0            0.5    0.017916297     0.00198946   0.0030052551 
 1889000     6975       154.4055      10.061341          30800  0.00095941142         39.389             -0            0.5    0.017916297   0.0019893375   0.0030043301 
 1890000     6975      154.63328      10.075265          30800  0.00091936881          39.39             -0            0.5    0.017916297    0.001989057   0.0030022125 
Loop time of 3.95932 on 4 procs for 10000 steps with 6975 atoms, finish time Tue Sep 16 18:33:39 2025


Pair  time (%) = 0.838795 (21.1853)
Neigh time (%) = 0.0473995 (1.19716)
Comm  time (%) = 0.377292 (9.52919)
Outpt time (%) = 0.0004755 (0.0120096)
Other time (%) = 2.69536 (68.0763)

Nlocal:    1743.75 ave 2152 max 1261 min
Histogram: 1 0 0 0 0 1 1 0 0 1
Nghost:    354 ave 756 max 183 min
Histogram: 2 1 0 0 0 0 0 0 0 1
Neighs:    1028.25 ave 2472 max 37 min
Histogram: 1 0 0 2 0 0 0 0 0 1

Total # of neighbors = 4113
Ave neighs/atom = 0.589677
Neighbor list builds = 29
Dangerous builds = 0
  if "${prs} > ${tarp}" then "jump SELF loop2"
jump SELF loop1
  run   10000
WARNING: One or more atoms are time integrated more than once (/Users/howardtu/Documents/modeling/localPackage/LIGGGHTS-PUBLIC/src/modify.cpp:304)
Setting up run at Tue Sep 16 18:33:39 2025

Memory usage per processor = 6.69151 Mbytes
    Step    Atoms         KinEng            ker         Volume            prs           posw           prs1          posw1       ts_rayle       ts_hertz        ts_skin 
 1890000     6975      154.63328      10.075265          30800   0.0009176667          39.39             -0            0.5    0.017916297    0.001989057   0.0030022125 
 1891000     6975      154.81933      10.084507          30800  0.00088169428         39.391             -0            0.5    0.017916297   0.0019886625   0.0029992364 
 1892000     6975      154.93023      10.098215          30800  0.00084877802         39.392             -0            0.5    0.017916297   0.0019881776   0.0029955815 
 1893000     6975      154.98919      10.119359          30800  0.00082154801         39.393             -0            0.5    0.017916297   0.0019876466   0.0029915833 
 1894000     6975      155.13031      10.146047          30800  0.00079819404         39.394             -0            0.5    0.017916297   0.0019872122   0.0029883157 
 1895000     6975      155.31418      10.171535          30800  0.00078936919         39.395             -0            0.5    0.017916297   0.0019868243   0.0029854005 
 1896000     6975       155.5229      10.193183          30800  0.00077985594         39.396             -0            0.5    0.017916297   0.0019864422   0.0029825304 
 1897000     6975      155.69057      10.200191          30800  0.00076814636         39.397             -0            0.5    0.017916297   0.0019861065   0.0029800114 
 1898000     6975      155.82421      10.212361          30800  0.00075168752         39.398             -0            0.5    0.017916297   0.0019857998   0.0029777115 
 1899000     6975      155.96016      10.223321          30800  0.00073817099         39.399             -0            0.5    0.017916297   0.0019855289   0.0029756805 
 1900000     6975      156.08471      10.216334          30800  0.00072896109           39.4             -0            0.5    0.017916297   0.0019853077   0.0029740238 
Loop time of 4.00776 on 4 procs for 10000 steps with 6975 atoms, finish time Tue Sep 16 18:33:43 2025


Pair  time (%) = 0.848081 (21.161)
Neigh time (%) = 0.0481225 (1.20073)
Comm  time (%) = 0.378935 (9.45503)
Outpt time (%) = 0.003357 (0.0837624)
Other time (%) = 2.72927 (68.0995)

Nlocal:    1743.75 ave 2152 max 1261 min
Histogram: 1 0 0 0 0 1 1 0 0 1
Nghost:    354 ave 756 max 183 min
Histogram: 2 1 0 0 0 0 0 0 0 1
Neighs:    1031.5 ave 2485 max 37 min
Histogram: 1 0 0 2 0 0 0 0 0 1

Total # of neighbors = 4126
Ave neighs/atom = 0.591541
Neighbor list builds = 29
Dangerous builds = 0
  if "${prs} > ${tarp}" then "jump SELF loop2"
jump SELF loop1
  run   10000
WARNING: One or more atoms are time integrated more than once (/Users/howardtu/Documents/modeling/localPackage/LIGGGHTS-PUBLIC/src/modify.cpp:304)
Setting up run at Tue Sep 16 18:33:43 2025

Memory usage per processor = 6.69151 Mbytes
    Step    Atoms         KinEng            ker         Volume            prs           posw           prs1          posw1       ts_rayle       ts_hertz        ts_skin 
 1900000     6975      156.08471      10.216334          30800  0.00072765792           39.4             -0            0.5    0.017916297   0.0019853077   0.0029740238 
 1901000     6975      156.23841      10.212065          30800  0.00076649915         39.401             -0            0.5    0.017916297   0.0019851629   0.0029729388 
 1902000     6975      156.41017       10.20803          30800   0.0007897194         39.402             -0            0.5    0.017916297   0.0019851081   0.0029725289 
 1903000     6975      156.56012      10.207771          30800  0.00077926954         39.403             -0            0.5    0.017916297   0.0019851035   0.0029724944 
 1904000     6975      156.69239      10.200802          30800  0.00076104453         39.404             -0            0.5    0.017916297   0.0019851365   0.0029727418 
 1905000     6975      156.84152      10.196661          30800  0.00074499647         39.405             -0            0.5    0.017916297   0.0019852238   0.0029733954 
 1906000     6975      156.99831      10.196448          30800   0.0007233506         39.406             -0            0.5    0.017916297   0.0019853308   0.0029741964 
 1907000     6975       157.0736      10.171131          30800  0.00069860483         39.407             -0            0.5    0.017916297   0.0019854609   0.0029751708 
 1908000     6975      157.16221        10.1405          30800  0.00066761456         39.408             -0            0.5    0.017916297   0.0019856492   0.0029765823 
 1909000     6975      157.26973      10.119233          30800   0.0006478725         39.409             -0            0.5    0.017916297    0.001985905   0.0029784997 
 1910000     6975      157.35699      10.088383          30800  0.00063688845          39.41             -0            0.5    0.017916297   0.0019861698   0.0029804862 
Loop time of 4.02317 on 4 procs for 10000 steps with 6975 atoms, finish time Tue Sep 16 18:33:47 2025


Pair  time (%) = 0.852878 (21.1991)
Neigh time (%) = 0.0477423 (1.18668)
Comm  time (%) = 0.378482 (9.40755)
Outpt time (%) = 0.00048725 (0.0121111)
Other time (%) = 2.74358 (68.1945)

Nlocal:    1743.75 ave 2152 max 1261 min
Histogram: 1 0 0 0 0 1 1 0 0 1
Nghost:    354 ave 756 max 183 min
Histogram: 2 1 0 0 0 0 0 0 0 1
Neighs:    1034.75 ave 2498 max 37 min
Histogram: 1 0 0 2 0 0 0 0 0 1

Total # of neighbors = 4139
Ave neighs/atom = 0.593405
Neighbor list builds = 29
Dangerous builds = 0
  if "${prs} > ${tarp}" then "jump SELF loop2"
jump SELF loop1
  run   10000
WARNING: One or more atoms are time integrated more than once (/Users/howardtu/Documents/modeling/localPackage/LIGGGHTS-PUBLIC/src/modify.cpp:304)
Setting up run at Tue Sep 16 18:33:47 2025

Memory usage per processor = 6.69151 Mbytes
    Step    Atoms         KinEng            ker         Volume            prs           posw           prs1          posw1       ts_rayle       ts_hertz        ts_skin 
 1910000     6975      157.35699      10.088383          30800  0.00063577875          39.41             -0            0.5    0.017916297   0.0019861698   0.0029804862 
 1911000     6975      157.45923      10.076628          30800  0.00062771804         39.411             -0            0.5    0.017916297   0.0019863968   0.0029821899 
 1912000     6975      157.56235      10.072209          30800  0.00063499045         39.412             -0            0.5    0.017916297   0.0019865851   0.0029836035 
 1913000     6975      157.61236      10.063966          30800  0.00065229246         39.413             -0            0.5    0.017916297   0.0019868919   0.0029859084 
 1914000     6975      157.71138      10.063154          30800  0.00067026336         39.414             -0            0.5    0.017916297   0.0019874021   0.0029897443 
 1915000     6975      157.84269      10.062434          30800  0.00068282657         39.415             -0            0.5    0.017916297   0.0019879587   0.0029939327 
 1916000     6975       157.9754      10.055194          30800   0.0006832609         39.416             -0            0.5    0.017916297   0.0019883888   0.0029971733 
 1917000     6975      158.07592      10.034746          30800  0.00067621834         39.417             -0            0.5    0.017916297   0.0019884727   0.0029978054 
 1918000     6975      158.20302      10.027498          30800  0.00066216227         39.418             -0            0.5    0.017916297   0.0019883369   0.0029967818 
 1919000     6975      158.31723      10.024699          30800  0.00064420404         39.419             -0            0.5    0.017916297    0.001988083   0.0029948688 
 1920000     6975       158.4182      10.027544          30800  0.00062868571          39.42             -0            0.5    0.017916297   0.0019877381   0.0029922719 
Loop time of 4.04723 on 4 procs for 10000 steps with 6975 atoms, finish time Tue Sep 16 18:33:51 2025


Pair  time (%) = 0.857359 (21.1839)
Neigh time (%) = 0.047913 (1.18385)
Comm  time (%) = 0.378665 (9.35614)
Outpt time (%) = 0.00051625 (0.0127556)
Other time (%) = 2.76277 (68.2634)

Nlocal:    1743.75 ave 2152 max 1261 min
Histogram: 1 0 0 0 0 1 1 0 0 1
Nghost:    354 ave 756 max 183 min
Histogram: 2 1 0 0 0 0 0 0 0 1
Neighs:    1038 ave 2511 max 37 min
Histogram: 1 0 0 2 0 0 0 0 0 1

Total # of neighbors = 4152
Ave neighs/atom = 0.595269
Neighbor list builds = 29
Dangerous builds = 0
