LIGGGHTS (Version LIGGGHTS-PUBLIC 3.8.0, compiled 2025-09-16 14:10:11 by howardtu, git commit 3d5c00f20519e6bb6eb6756f51f1ad36564e649d, build configuration: MPI SMALLBIG, models: HERTZ TANGENTIAL_HISTORY TANGENTIAL_NO_HISTORY COHESION_SJKR COHESION_SJKR2 ROLLING_EPSD2 SURFACE_DEFAULT)
# Battery simulation using pre-compacted particles from restart file
# With type-based boundary conditions for SOR solver
# SE particles (type 3) - Solid Electrolyte
# AM particles (type 1) - Active Material (Si)
# CC1 particles (type 2) - Current Collector 1 (bottom) - 0V
# CC2 particles (type 6) - Current Collector 2 (top/lithium) - 0.04V

# --- 1. INITIALIZATION ---
units           micro  # Using micro units to match the compaction script
atom_style      granular
atom_modify     map array
boundary        f f f  # Fixed boundaries as in compaction script
newton          off

communicate     single vel yes

# Set timestep
timestep        5.e-8

# --- 2. READ RESTART FILE ---
# Read the compacted configuration
#read_restart    compacted_battery1.restart
read_data     compacted_battery.data  # Alternative if restart has issues
  orthogonal box = (-10 -10 0) to (10 10 77)
  1 by 1 by 1 MPI processor grid
  6575 atoms
  6575 velocities

# --- 3. RE-ESTABLISH GROUPS ---
# Define groups based on particle types from the compaction script
group  cc2   type  6   # Current Collector 2 (top/lithium) - will be 0.04V
400 atoms in group cc2
group  se    type  3   # Solid Electrolyte
5632 atoms in group se
group  ghost type  5   # Ghost layer (separator) - may have been deleted
0 atoms in group ghost
group  am    type  1   # Active Material
143 atoms in group am
group  cc1   type  2   # Current Collector 1 (bottom) - will be 0V
400 atoms in group cc1

# Groups for particles affected by walls
group  ptc   type  1 3 # Types affected by walls
5775 atoms in group ptc

# --- 3.5. ZERO ALL VELOCITIES ---
# Set all velocities to zero to start from rest
velocity all zero linear
velocity all zero angular

# --- 4. NEIGHBOR SETTINGS ---
neighbor        0.001 bin
neigh_modify    every 1 delay 0 check yes

# --- 5. RE-ESTABLISH MATERIAL PROPERTIES ---
# Young's modulus (from compaction script)
variable        Yam           equal     48.5.e6    # AM (Active Material) [kPA]
variable        Ycc           equal     50.e6   # CC1 and CC2 (Current Collectors) [kPA]
variable        Yse           equal     23.e6    # SE (Solid Electrolyte) [kPA]
variable        Yww           equal     50.e6   # Wall [kPA]
variable        Yghost        equal     50.e6   # Ghost particles [kPA]
variable        particle_poissons_ratio equal 0.4

# Material properties
fix             m1 all property/global youngsModulus peratomtype ${Yam} ${Ycc} ${Yse} ${Yww} ${Yghost} ${Ycc}
fix             m1 all property/global youngsModulus peratomtype 48.5 ${Ycc} ${Yse} ${Yww} ${Yghost} ${Ycc}
fix             m1 all property/global youngsModulus peratomtype 48.5 50000000 ${Yse} ${Yww} ${Yghost} ${Ycc}
fix             m1 all property/global youngsModulus peratomtype 48.5 50000000 23000000 ${Yww} ${Yghost} ${Ycc}
fix             m1 all property/global youngsModulus peratomtype 48.5 50000000 23000000 50000000 ${Yghost} ${Ycc}
fix             m1 all property/global youngsModulus peratomtype 48.5 50000000 23000000 50000000 50000000 ${Ycc}
fix             m1 all property/global youngsModulus peratomtype 48.5 50000000 23000000 50000000 50000000 50000000
fix             m2 all property/global poissonsRatio peratomtype ${particle_poissons_ratio} ${particle_poissons_ratio} ${particle_poissons_ratio} ${particle_poissons_ratio} ${particle_poissons_ratio} ${particle_poissons_ratio}
fix             m2 all property/global poissonsRatio peratomtype 0.4 ${particle_poissons_ratio} ${particle_poissons_ratio} ${particle_poissons_ratio} ${particle_poissons_ratio} ${particle_poissons_ratio}
fix             m2 all property/global poissonsRatio peratomtype 0.4 0.4 ${particle_poissons_ratio} ${particle_poissons_ratio} ${particle_poissons_ratio} ${particle_poissons_ratio}
fix             m2 all property/global poissonsRatio peratomtype 0.4 0.4 0.4 ${particle_poissons_ratio} ${particle_poissons_ratio} ${particle_poissons_ratio}
fix             m2 all property/global poissonsRatio peratomtype 0.4 0.4 0.4 0.4 ${particle_poissons_ratio} ${particle_poissons_ratio}
fix             m2 all property/global poissonsRatio peratomtype 0.4 0.4 0.4 0.4 0.4 ${particle_poissons_ratio}
fix             m2 all property/global poissonsRatio peratomtype 0.4 0.4 0.4 0.4 0.4 0.4

# Coefficient of restitution (all 0.1 from compaction)
variable        cf_all equal 0.1
fix             m3 all property/global coefficientRestitution peratomtypepair 6                 ${cf_all} ${cf_all} ${cf_all} ${cf_all} ${cf_all} ${cf_all}                 ${cf_all} ${cf_all} ${cf_all} ${cf_all} ${cf_all} ${cf_all}                 ${cf_all} ${cf_all} ${cf_all} ${cf_all} ${cf_all} ${cf_all}                 ${cf_all} ${cf_all} ${cf_all} ${cf_all} ${cf_all} ${cf_all}                 ${cf_all} ${cf_all} ${cf_all} ${cf_all} ${cf_all} ${cf_all}                 ${cf_all} ${cf_all} ${cf_all} ${cf_all} ${cf_all} ${cf_all}
fix             m3 all property/global coefficientRestitution peratomtypepair 6                 0.1 ${cf_all} ${cf_all} ${cf_all} ${cf_all} ${cf_all}                 ${cf_all} ${cf_all} ${cf_all} ${cf_all} ${cf_all} ${cf_all}                 ${cf_all} ${cf_all} ${cf_all} ${cf_all} ${cf_all} ${cf_all}                 ${cf_all} ${cf_all} ${cf_all} ${cf_all} ${cf_all} ${cf_all}                 ${cf_all} ${cf_all} ${cf_all} ${cf_all} ${cf_all} ${cf_all}                 ${cf_all} ${cf_all} ${cf_all} ${cf_all} ${cf_all} ${cf_all}
fix             m3 all property/global coefficientRestitution peratomtypepair 6                 0.1 0.1 ${cf_all} ${cf_all} ${cf_all} ${cf_all}                 ${cf_all} ${cf_all} ${cf_all} ${cf_all} ${cf_all} ${cf_all}                 ${cf_all} ${cf_all} ${cf_all} ${cf_all} ${cf_all} ${cf_all}                 ${cf_all} ${cf_all} ${cf_all} ${cf_all} ${cf_all} ${cf_all}                 ${cf_all} ${cf_all} ${cf_all} ${cf_all} ${cf_all} ${cf_all}                 ${cf_all} ${cf_all} ${cf_all} ${cf_all} ${cf_all} ${cf_all}
fix             m3 all property/global coefficientRestitution peratomtypepair 6                 0.1 0.1 0.1 ${cf_all} ${cf_all} ${cf_all}                 ${cf_all} ${cf_all} ${cf_all} ${cf_all} ${cf_all} ${cf_all}                 ${cf_all} ${cf_all} ${cf_all} ${cf_all} ${cf_all} ${cf_all}                 ${cf_all} ${cf_all} ${cf_all} ${cf_all} ${cf_all} ${cf_all}                 ${cf_all} ${cf_all} ${cf_all} ${cf_all} ${cf_all} ${cf_all}                 ${cf_all} ${cf_all} ${cf_all} ${cf_all} ${cf_all} ${cf_all}
fix             m3 all property/global coefficientRestitution peratomtypepair 6                 0.1 0.1 0.1 0.1 ${cf_all} ${cf_all}                 ${cf_all} ${cf_all} ${cf_all} ${cf_all} ${cf_all} ${cf_all}                 ${cf_all} ${cf_all} ${cf_all} ${cf_all} ${cf_all} ${cf_all}                 ${cf_all} ${cf_all} ${cf_all} ${cf_all} ${cf_all} ${cf_all}                 ${cf_all} ${cf_all} ${cf_all} ${cf_all} ${cf_all} ${cf_all}                 ${cf_all} ${cf_all} ${cf_all} ${cf_all} ${cf_all} ${cf_all}
fix             m3 all property/global coefficientRestitution peratomtypepair 6                 0.1 0.1 0.1 0.1 0.1 ${cf_all}                 ${cf_all} ${cf_all} ${cf_all} ${cf_all} ${cf_all} ${cf_all}                 ${cf_all} ${cf_all} ${cf_all} ${cf_all} ${cf_all} ${cf_all}                 ${cf_all} ${cf_all} ${cf_all} ${cf_all} ${cf_all} ${cf_all}                 ${cf_all} ${cf_all} ${cf_all} ${cf_all} ${cf_all} ${cf_all}                 ${cf_all} ${cf_all} ${cf_all} ${cf_all} ${cf_all} ${cf_all}
fix             m3 all property/global coefficientRestitution peratomtypepair 6                 0.1 0.1 0.1 0.1 0.1 0.1                 ${cf_all} ${cf_all} ${cf_all} ${cf_all} ${cf_all} ${cf_all}                 ${cf_all} ${cf_all} ${cf_all} ${cf_all} ${cf_all} ${cf_all}                 ${cf_all} ${cf_all} ${cf_all} ${cf_all} ${cf_all} ${cf_all}                 ${cf_all} ${cf_all} ${cf_all} ${cf_all} ${cf_all} ${cf_all}                 ${cf_all} ${cf_all} ${cf_all} ${cf_all} ${cf_all} ${cf_all}
fix             m3 all property/global coefficientRestitution peratomtypepair 6                 0.1 0.1 0.1 0.1 0.1 0.1                 0.1 ${cf_all} ${cf_all} ${cf_all} ${cf_all} ${cf_all}                 ${cf_all} ${cf_all} ${cf_all} ${cf_all} ${cf_all} ${cf_all}                 ${cf_all} ${cf_all} ${cf_all} ${cf_all} ${cf_all} ${cf_all}                 ${cf_all} ${cf_all} ${cf_all} ${cf_all} ${cf_all} ${cf_all}                 ${cf_all} ${cf_all} ${cf_all} ${cf_all} ${cf_all} ${cf_all}
fix             m3 all property/global coefficientRestitution peratomtypepair 6                 0.1 0.1 0.1 0.1 0.1 0.1                 0.1 0.1 ${cf_all} ${cf_all} ${cf_all} ${cf_all}                 ${cf_all} ${cf_all} ${cf_all} ${cf_all} ${cf_all} ${cf_all}                 ${cf_all} ${cf_all} ${cf_all} ${cf_all} ${cf_all} ${cf_all}                 ${cf_all} ${cf_all} ${cf_all} ${cf_all} ${cf_all} ${cf_all}                 ${cf_all} ${cf_all} ${cf_all} ${cf_all} ${cf_all} ${cf_all}
fix             m3 all property/global coefficientRestitution peratomtypepair 6                 0.1 0.1 0.1 0.1 0.1 0.1                 0.1 0.1 0.1 ${cf_all} ${cf_all} ${cf_all}                 ${cf_all} ${cf_all} ${cf_all} ${cf_all} ${cf_all} ${cf_all}                 ${cf_all} ${cf_all} ${cf_all} ${cf_all} ${cf_all} ${cf_all}                 ${cf_all} ${cf_all} ${cf_all} ${cf_all} ${cf_all} ${cf_all}                 ${cf_all} ${cf_all} ${cf_all} ${cf_all} ${cf_all} ${cf_all}
fix             m3 all property/global coefficientRestitution peratomtypepair 6                 0.1 0.1 0.1 0.1 0.1 0.1                 0.1 0.1 0.1 0.1 ${cf_all} ${cf_all}                 ${cf_all} ${cf_all} ${cf_all} ${cf_all} ${cf_all} ${cf_all}                 ${cf_all} ${cf_all} ${cf_all} ${cf_all} ${cf_all} ${cf_all}                 ${cf_all} ${cf_all} ${cf_all} ${cf_all} ${cf_all} ${cf_all}                 ${cf_all} ${cf_all} ${cf_all} ${cf_all} ${cf_all} ${cf_all}
fix             m3 all property/global coefficientRestitution peratomtypepair 6                 0.1 0.1 0.1 0.1 0.1 0.1                 0.1 0.1 0.1 0.1 0.1 ${cf_all}                 ${cf_all} ${cf_all} ${cf_all} ${cf_all} ${cf_all} ${cf_all}                 ${cf_all} ${cf_all} ${cf_all} ${cf_all} ${cf_all} ${cf_all}                 ${cf_all} ${cf_all} ${cf_all} ${cf_all} ${cf_all} ${cf_all}                 ${cf_all} ${cf_all} ${cf_all} ${cf_all} ${cf_all} ${cf_all}
fix             m3 all property/global coefficientRestitution peratomtypepair 6                 0.1 0.1 0.1 0.1 0.1 0.1                 0.1 0.1 0.1 0.1 0.1 0.1                 ${cf_all} ${cf_all} ${cf_all} ${cf_all} ${cf_all} ${cf_all}                 ${cf_all} ${cf_all} ${cf_all} ${cf_all} ${cf_all} ${cf_all}                 ${cf_all} ${cf_all} ${cf_all} ${cf_all} ${cf_all} ${cf_all}                 ${cf_all} ${cf_all} ${cf_all} ${cf_all} ${cf_all} ${cf_all}
fix             m3 all property/global coefficientRestitution peratomtypepair 6                 0.1 0.1 0.1 0.1 0.1 0.1                 0.1 0.1 0.1 0.1 0.1 0.1                 0.1 ${cf_all} ${cf_all} ${cf_all} ${cf_all} ${cf_all}                 ${cf_all} ${cf_all} ${cf_all} ${cf_all} ${cf_all} ${cf_all}                 ${cf_all} ${cf_all} ${cf_all} ${cf_all} ${cf_all} ${cf_all}                 ${cf_all} ${cf_all} ${cf_all} ${cf_all} ${cf_all} ${cf_all}
fix             m3 all property/global coefficientRestitution peratomtypepair 6                 0.1 0.1 0.1 0.1 0.1 0.1                 0.1 0.1 0.1 0.1 0.1 0.1                 0.1 0.1 ${cf_all} ${cf_all} ${cf_all} ${cf_all}                 ${cf_all} ${cf_all} ${cf_all} ${cf_all} ${cf_all} ${cf_all}                 ${cf_all} ${cf_all} ${cf_all} ${cf_all} ${cf_all} ${cf_all}                 ${cf_all} ${cf_all} ${cf_all} ${cf_all} ${cf_all} ${cf_all}
fix             m3 all property/global coefficientRestitution peratomtypepair 6                 0.1 0.1 0.1 0.1 0.1 0.1                 0.1 0.1 0.1 0.1 0.1 0.1                 0.1 0.1 0.1 ${cf_all} ${cf_all} ${cf_all}                 ${cf_all} ${cf_all} ${cf_all} ${cf_all} ${cf_all} ${cf_all}                 ${cf_all} ${cf_all} ${cf_all} ${cf_all} ${cf_all} ${cf_all}                 ${cf_all} ${cf_all} ${cf_all} ${cf_all} ${cf_all} ${cf_all}
fix             m3 all property/global coefficientRestitution peratomtypepair 6                 0.1 0.1 0.1 0.1 0.1 0.1                 0.1 0.1 0.1 0.1 0.1 0.1                 0.1 0.1 0.1 0.1 ${cf_all} ${cf_all}                 ${cf_all} ${cf_all} ${cf_all} ${cf_all} ${cf_all} ${cf_all}                 ${cf_all} ${cf_all} ${cf_all} ${cf_all} ${cf_all} ${cf_all}                 ${cf_all} ${cf_all} ${cf_all} ${cf_all} ${cf_all} ${cf_all}
fix             m3 all property/global coefficientRestitution peratomtypepair 6                 0.1 0.1 0.1 0.1 0.1 0.1                 0.1 0.1 0.1 0.1 0.1 0.1                 0.1 0.1 0.1 0.1 0.1 ${cf_all}                 ${cf_all} ${cf_all} ${cf_all} ${cf_all} ${cf_all} ${cf_all}                 ${cf_all} ${cf_all} ${cf_all} ${cf_all} ${cf_all} ${cf_all}                 ${cf_all} ${cf_all} ${cf_all} ${cf_all} ${cf_all} ${cf_all}
fix             m3 all property/global coefficientRestitution peratomtypepair 6                 0.1 0.1 0.1 0.1 0.1 0.1                 0.1 0.1 0.1 0.1 0.1 0.1                 0.1 0.1 0.1 0.1 0.1 0.1                 ${cf_all} ${cf_all} ${cf_all} ${cf_all} ${cf_all} ${cf_all}                 ${cf_all} ${cf_all} ${cf_all} ${cf_all} ${cf_all} ${cf_all}                 ${cf_all} ${cf_all} ${cf_all} ${cf_all} ${cf_all} ${cf_all}
fix             m3 all property/global coefficientRestitution peratomtypepair 6                 0.1 0.1 0.1 0.1 0.1 0.1                 0.1 0.1 0.1 0.1 0.1 0.1                 0.1 0.1 0.1 0.1 0.1 0.1                 0.1 ${cf_all} ${cf_all} ${cf_all} ${cf_all} ${cf_all}                 ${cf_all} ${cf_all} ${cf_all} ${cf_all} ${cf_all} ${cf_all}                 ${cf_all} ${cf_all} ${cf_all} ${cf_all} ${cf_all} ${cf_all}
fix             m3 all property/global coefficientRestitution peratomtypepair 6                 0.1 0.1 0.1 0.1 0.1 0.1                 0.1 0.1 0.1 0.1 0.1 0.1                 0.1 0.1 0.1 0.1 0.1 0.1                 0.1 0.1 ${cf_all} ${cf_all} ${cf_all} ${cf_all}                 ${cf_all} ${cf_all} ${cf_all} ${cf_all} ${cf_all} ${cf_all}                 ${cf_all} ${cf_all} ${cf_all} ${cf_all} ${cf_all} ${cf_all}
fix             m3 all property/global coefficientRestitution peratomtypepair 6                 0.1 0.1 0.1 0.1 0.1 0.1                 0.1 0.1 0.1 0.1 0.1 0.1                 0.1 0.1 0.1 0.1 0.1 0.1                 0.1 0.1 0.1 ${cf_all} ${cf_all} ${cf_all}                 ${cf_all} ${cf_all} ${cf_all} ${cf_all} ${cf_all} ${cf_all}                 ${cf_all} ${cf_all} ${cf_all} ${cf_all} ${cf_all} ${cf_all}
fix             m3 all property/global coefficientRestitution peratomtypepair 6                 0.1 0.1 0.1 0.1 0.1 0.1                 0.1 0.1 0.1 0.1 0.1 0.1                 0.1 0.1 0.1 0.1 0.1 0.1                 0.1 0.1 0.1 0.1 ${cf_all} ${cf_all}                 ${cf_all} ${cf_all} ${cf_all} ${cf_all} ${cf_all} ${cf_all}                 ${cf_all} ${cf_all} ${cf_all} ${cf_all} ${cf_all} ${cf_all}
fix             m3 all property/global coefficientRestitution peratomtypepair 6                 0.1 0.1 0.1 0.1 0.1 0.1                 0.1 0.1 0.1 0.1 0.1 0.1                 0.1 0.1 0.1 0.1 0.1 0.1                 0.1 0.1 0.1 0.1 0.1 ${cf_all}                 ${cf_all} ${cf_all} ${cf_all} ${cf_all} ${cf_all} ${cf_all}                 ${cf_all} ${cf_all} ${cf_all} ${cf_all} ${cf_all} ${cf_all}
fix             m3 all property/global coefficientRestitution peratomtypepair 6                 0.1 0.1 0.1 0.1 0.1 0.1                 0.1 0.1 0.1 0.1 0.1 0.1                 0.1 0.1 0.1 0.1 0.1 0.1                 0.1 0.1 0.1 0.1 0.1 0.1                 ${cf_all} ${cf_all} ${cf_all} ${cf_all} ${cf_all} ${cf_all}                 ${cf_all} ${cf_all} ${cf_all} ${cf_all} ${cf_all} ${cf_all}
fix             m3 all property/global coefficientRestitution peratomtypepair 6                 0.1 0.1 0.1 0.1 0.1 0.1                 0.1 0.1 0.1 0.1 0.1 0.1                 0.1 0.1 0.1 0.1 0.1 0.1                 0.1 0.1 0.1 0.1 0.1 0.1                 0.1 ${cf_all} ${cf_all} ${cf_all} ${cf_all} ${cf_all}                 ${cf_all} ${cf_all} ${cf_all} ${cf_all} ${cf_all} ${cf_all}
fix             m3 all property/global coefficientRestitution peratomtypepair 6                 0.1 0.1 0.1 0.1 0.1 0.1                 0.1 0.1 0.1 0.1 0.1 0.1                 0.1 0.1 0.1 0.1 0.1 0.1                 0.1 0.1 0.1 0.1 0.1 0.1                 0.1 0.1 ${cf_all} ${cf_all} ${cf_all} ${cf_all}                 ${cf_all} ${cf_all} ${cf_all} ${cf_all} ${cf_all} ${cf_all}
fix             m3 all property/global coefficientRestitution peratomtypepair 6                 0.1 0.1 0.1 0.1 0.1 0.1                 0.1 0.1 0.1 0.1 0.1 0.1                 0.1 0.1 0.1 0.1 0.1 0.1                 0.1 0.1 0.1 0.1 0.1 0.1                 0.1 0.1 0.1 ${cf_all} ${cf_all} ${cf_all}                 ${cf_all} ${cf_all} ${cf_all} ${cf_all} ${cf_all} ${cf_all}
fix             m3 all property/global coefficientRestitution peratomtypepair 6                 0.1 0.1 0.1 0.1 0.1 0.1                 0.1 0.1 0.1 0.1 0.1 0.1                 0.1 0.1 0.1 0.1 0.1 0.1                 0.1 0.1 0.1 0.1 0.1 0.1                 0.1 0.1 0.1 0.1 ${cf_all} ${cf_all}                 ${cf_all} ${cf_all} ${cf_all} ${cf_all} ${cf_all} ${cf_all}
fix             m3 all property/global coefficientRestitution peratomtypepair 6                 0.1 0.1 0.1 0.1 0.1 0.1                 0.1 0.1 0.1 0.1 0.1 0.1                 0.1 0.1 0.1 0.1 0.1 0.1                 0.1 0.1 0.1 0.1 0.1 0.1                 0.1 0.1 0.1 0.1 0.1 ${cf_all}                 ${cf_all} ${cf_all} ${cf_all} ${cf_all} ${cf_all} ${cf_all}
fix             m3 all property/global coefficientRestitution peratomtypepair 6                 0.1 0.1 0.1 0.1 0.1 0.1                 0.1 0.1 0.1 0.1 0.1 0.1                 0.1 0.1 0.1 0.1 0.1 0.1                 0.1 0.1 0.1 0.1 0.1 0.1                 0.1 0.1 0.1 0.1 0.1 0.1                 ${cf_all} ${cf_all} ${cf_all} ${cf_all} ${cf_all} ${cf_all}
fix             m3 all property/global coefficientRestitution peratomtypepair 6                 0.1 0.1 0.1 0.1 0.1 0.1                 0.1 0.1 0.1 0.1 0.1 0.1                 0.1 0.1 0.1 0.1 0.1 0.1                 0.1 0.1 0.1 0.1 0.1 0.1                 0.1 0.1 0.1 0.1 0.1 0.1                 0.1 ${cf_all} ${cf_all} ${cf_all} ${cf_all} ${cf_all}
fix             m3 all property/global coefficientRestitution peratomtypepair 6                 0.1 0.1 0.1 0.1 0.1 0.1                 0.1 0.1 0.1 0.1 0.1 0.1                 0.1 0.1 0.1 0.1 0.1 0.1                 0.1 0.1 0.1 0.1 0.1 0.1                 0.1 0.1 0.1 0.1 0.1 0.1                 0.1 0.1 ${cf_all} ${cf_all} ${cf_all} ${cf_all}
fix             m3 all property/global coefficientRestitution peratomtypepair 6                 0.1 0.1 0.1 0.1 0.1 0.1                 0.1 0.1 0.1 0.1 0.1 0.1                 0.1 0.1 0.1 0.1 0.1 0.1                 0.1 0.1 0.1 0.1 0.1 0.1                 0.1 0.1 0.1 0.1 0.1 0.1                 0.1 0.1 0.1 ${cf_all} ${cf_all} ${cf_all}
fix             m3 all property/global coefficientRestitution peratomtypepair 6                 0.1 0.1 0.1 0.1 0.1 0.1                 0.1 0.1 0.1 0.1 0.1 0.1                 0.1 0.1 0.1 0.1 0.1 0.1                 0.1 0.1 0.1 0.1 0.1 0.1                 0.1 0.1 0.1 0.1 0.1 0.1                 0.1 0.1 0.1 0.1 ${cf_all} ${cf_all}
fix             m3 all property/global coefficientRestitution peratomtypepair 6                 0.1 0.1 0.1 0.1 0.1 0.1                 0.1 0.1 0.1 0.1 0.1 0.1                 0.1 0.1 0.1 0.1 0.1 0.1                 0.1 0.1 0.1 0.1 0.1 0.1                 0.1 0.1 0.1 0.1 0.1 0.1                 0.1 0.1 0.1 0.1 0.1 ${cf_all}
fix             m3 all property/global coefficientRestitution peratomtypepair 6                 0.1 0.1 0.1 0.1 0.1 0.1                 0.1 0.1 0.1 0.1 0.1 0.1                 0.1 0.1 0.1 0.1 0.1 0.1                 0.1 0.1 0.1 0.1 0.1 0.1                 0.1 0.1 0.1 0.1 0.1 0.1                 0.1 0.1 0.1 0.1 0.1 0.1

# Coefficient of friction (all 0.1 from compaction)
variable        cof_all equal 0.1
fix             m4 all property/global coefficientFriction peratomtypepair 6                 ${cof_all} ${cof_all} ${cof_all} ${cof_all} ${cof_all} ${cof_all}                 ${cof_all} ${cof_all} ${cof_all} ${cof_all} ${cof_all} ${cof_all}                 ${cof_all} ${cof_all} ${cof_all} ${cof_all} ${cof_all} ${cof_all}                 ${cof_all} ${cof_all} ${cof_all} ${cof_all} ${cof_all} ${cof_all}                 ${cof_all} ${cof_all} ${cof_all} ${cof_all} ${cof_all} ${cof_all}                 ${cof_all} ${cof_all} ${cof_all} ${cof_all} ${cof_all} ${cof_all}
fix             m4 all property/global coefficientFriction peratomtypepair 6                 0.1 ${cof_all} ${cof_all} ${cof_all} ${cof_all} ${cof_all}                 ${cof_all} ${cof_all} ${cof_all} ${cof_all} ${cof_all} ${cof_all}                 ${cof_all} ${cof_all} ${cof_all} ${cof_all} ${cof_all} ${cof_all}                 ${cof_all} ${cof_all} ${cof_all} ${cof_all} ${cof_all} ${cof_all}                 ${cof_all} ${cof_all} ${cof_all} ${cof_all} ${cof_all} ${cof_all}                 ${cof_all} ${cof_all} ${cof_all} ${cof_all} ${cof_all} ${cof_all}
fix             m4 all property/global coefficientFriction peratomtypepair 6                 0.1 0.1 ${cof_all} ${cof_all} ${cof_all} ${cof_all}                 ${cof_all} ${cof_all} ${cof_all} ${cof_all} ${cof_all} ${cof_all}                 ${cof_all} ${cof_all} ${cof_all} ${cof_all} ${cof_all} ${cof_all}                 ${cof_all} ${cof_all} ${cof_all} ${cof_all} ${cof_all} ${cof_all}                 ${cof_all} ${cof_all} ${cof_all} ${cof_all} ${cof_all} ${cof_all}                 ${cof_all} ${cof_all} ${cof_all} ${cof_all} ${cof_all} ${cof_all}
fix             m4 all property/global coefficientFriction peratomtypepair 6                 0.1 0.1 0.1 ${cof_all} ${cof_all} ${cof_all}                 ${cof_all} ${cof_all} ${cof_all} ${cof_all} ${cof_all} ${cof_all}                 ${cof_all} ${cof_all} ${cof_all} ${cof_all} ${cof_all} ${cof_all}                 ${cof_all} ${cof_all} ${cof_all} ${cof_all} ${cof_all} ${cof_all}                 ${cof_all} ${cof_all} ${cof_all} ${cof_all} ${cof_all} ${cof_all}                 ${cof_all} ${cof_all} ${cof_all} ${cof_all} ${cof_all} ${cof_all}
fix             m4 all property/global coefficientFriction peratomtypepair 6                 0.1 0.1 0.1 0.1 ${cof_all} ${cof_all}                 ${cof_all} ${cof_all} ${cof_all} ${cof_all} ${cof_all} ${cof_all}                 ${cof_all} ${cof_all} ${cof_all} ${cof_all} ${cof_all} ${cof_all}                 ${cof_all} ${cof_all} ${cof_all} ${cof_all} ${cof_all} ${cof_all}                 ${cof_all} ${cof_all} ${cof_all} ${cof_all} ${cof_all} ${cof_all}                 ${cof_all} ${cof_all} ${cof_all} ${cof_all} ${cof_all} ${cof_all}
fix             m4 all property/global coefficientFriction peratomtypepair 6                 0.1 0.1 0.1 0.1 0.1 ${cof_all}                 ${cof_all} ${cof_all} ${cof_all} ${cof_all} ${cof_all} ${cof_all}                 ${cof_all} ${cof_all} ${cof_all} ${cof_all} ${cof_all} ${cof_all}                 ${cof_all} ${cof_all} ${cof_all} ${cof_all} ${cof_all} ${cof_all}                 ${cof_all} ${cof_all} ${cof_all} ${cof_all} ${cof_all} ${cof_all}                 ${cof_all} ${cof_all} ${cof_all} ${cof_all} ${cof_all} ${cof_all}
fix             m4 all property/global coefficientFriction peratomtypepair 6                 0.1 0.1 0.1 0.1 0.1 0.1                 ${cof_all} ${cof_all} ${cof_all} ${cof_all} ${cof_all} ${cof_all}                 ${cof_all} ${cof_all} ${cof_all} ${cof_all} ${cof_all} ${cof_all}                 ${cof_all} ${cof_all} ${cof_all} ${cof_all} ${cof_all} ${cof_all}                 ${cof_all} ${cof_all} ${cof_all} ${cof_all} ${cof_all} ${cof_all}                 ${cof_all} ${cof_all} ${cof_all} ${cof_all} ${cof_all} ${cof_all}
fix             m4 all property/global coefficientFriction peratomtypepair 6                 0.1 0.1 0.1 0.1 0.1 0.1                 0.1 ${cof_all} ${cof_all} ${cof_all} ${cof_all} ${cof_all}                 ${cof_all} ${cof_all} ${cof_all} ${cof_all} ${cof_all} ${cof_all}                 ${cof_all} ${cof_all} ${cof_all} ${cof_all} ${cof_all} ${cof_all}                 ${cof_all} ${cof_all} ${cof_all} ${cof_all} ${cof_all} ${cof_all}                 ${cof_all} ${cof_all} ${cof_all} ${cof_all} ${cof_all} ${cof_all}
fix             m4 all property/global coefficientFriction peratomtypepair 6                 0.1 0.1 0.1 0.1 0.1 0.1                 0.1 0.1 ${cof_all} ${cof_all} ${cof_all} ${cof_all}                 ${cof_all} ${cof_all} ${cof_all} ${cof_all} ${cof_all} ${cof_all}                 ${cof_all} ${cof_all} ${cof_all} ${cof_all} ${cof_all} ${cof_all}                 ${cof_all} ${cof_all} ${cof_all} ${cof_all} ${cof_all} ${cof_all}                 ${cof_all} ${cof_all} ${cof_all} ${cof_all} ${cof_all} ${cof_all}
fix             m4 all property/global coefficientFriction peratomtypepair 6                 0.1 0.1 0.1 0.1 0.1 0.1                 0.1 0.1 0.1 ${cof_all} ${cof_all} ${cof_all}                 ${cof_all} ${cof_all} ${cof_all} ${cof_all} ${cof_all} ${cof_all}                 ${cof_all} ${cof_all} ${cof_all} ${cof_all} ${cof_all} ${cof_all}                 ${cof_all} ${cof_all} ${cof_all} ${cof_all} ${cof_all} ${cof_all}                 ${cof_all} ${cof_all} ${cof_all} ${cof_all} ${cof_all} ${cof_all}
fix             m4 all property/global coefficientFriction peratomtypepair 6                 0.1 0.1 0.1 0.1 0.1 0.1                 0.1 0.1 0.1 0.1 ${cof_all} ${cof_all}                 ${cof_all} ${cof_all} ${cof_all} ${cof_all} ${cof_all} ${cof_all}                 ${cof_all} ${cof_all} ${cof_all} ${cof_all} ${cof_all} ${cof_all}                 ${cof_all} ${cof_all} ${cof_all} ${cof_all} ${cof_all} ${cof_all}                 ${cof_all} ${cof_all} ${cof_all} ${cof_all} ${cof_all} ${cof_all}
fix             m4 all property/global coefficientFriction peratomtypepair 6                 0.1 0.1 0.1 0.1 0.1 0.1                 0.1 0.1 0.1 0.1 0.1 ${cof_all}                 ${cof_all} ${cof_all} ${cof_all} ${cof_all} ${cof_all} ${cof_all}                 ${cof_all} ${cof_all} ${cof_all} ${cof_all} ${cof_all} ${cof_all}                 ${cof_all} ${cof_all} ${cof_all} ${cof_all} ${cof_all} ${cof_all}                 ${cof_all} ${cof_all} ${cof_all} ${cof_all} ${cof_all} ${cof_all}
fix             m4 all property/global coefficientFriction peratomtypepair 6                 0.1 0.1 0.1 0.1 0.1 0.1                 0.1 0.1 0.1 0.1 0.1 0.1                 ${cof_all} ${cof_all} ${cof_all} ${cof_all} ${cof_all} ${cof_all}                 ${cof_all} ${cof_all} ${cof_all} ${cof_all} ${cof_all} ${cof_all}                 ${cof_all} ${cof_all} ${cof_all} ${cof_all} ${cof_all} ${cof_all}                 ${cof_all} ${cof_all} ${cof_all} ${cof_all} ${cof_all} ${cof_all}
fix             m4 all property/global coefficientFriction peratomtypepair 6                 0.1 0.1 0.1 0.1 0.1 0.1                 0.1 0.1 0.1 0.1 0.1 0.1                 0.1 ${cof_all} ${cof_all} ${cof_all} ${cof_all} ${cof_all}                 ${cof_all} ${cof_all} ${cof_all} ${cof_all} ${cof_all} ${cof_all}                 ${cof_all} ${cof_all} ${cof_all} ${cof_all} ${cof_all} ${cof_all}                 ${cof_all} ${cof_all} ${cof_all} ${cof_all} ${cof_all} ${cof_all}
fix             m4 all property/global coefficientFriction peratomtypepair 6                 0.1 0.1 0.1 0.1 0.1 0.1                 0.1 0.1 0.1 0.1 0.1 0.1                 0.1 0.1 ${cof_all} ${cof_all} ${cof_all} ${cof_all}                 ${cof_all} ${cof_all} ${cof_all} ${cof_all} ${cof_all} ${cof_all}                 ${cof_all} ${cof_all} ${cof_all} ${cof_all} ${cof_all} ${cof_all}                 ${cof_all} ${cof_all} ${cof_all} ${cof_all} ${cof_all} ${cof_all}
fix             m4 all property/global coefficientFriction peratomtypepair 6                 0.1 0.1 0.1 0.1 0.1 0.1                 0.1 0.1 0.1 0.1 0.1 0.1                 0.1 0.1 0.1 ${cof_all} ${cof_all} ${cof_all}                 ${cof_all} ${cof_all} ${cof_all} ${cof_all} ${cof_all} ${cof_all}                 ${cof_all} ${cof_all} ${cof_all} ${cof_all} ${cof_all} ${cof_all}                 ${cof_all} ${cof_all} ${cof_all} ${cof_all} ${cof_all} ${cof_all}
fix             m4 all property/global coefficientFriction peratomtypepair 6                 0.1 0.1 0.1 0.1 0.1 0.1                 0.1 0.1 0.1 0.1 0.1 0.1                 0.1 0.1 0.1 0.1 ${cof_all} ${cof_all}                 ${cof_all} ${cof_all} ${cof_all} ${cof_all} ${cof_all} ${cof_all}                 ${cof_all} ${cof_all} ${cof_all} ${cof_all} ${cof_all} ${cof_all}                 ${cof_all} ${cof_all} ${cof_all} ${cof_all} ${cof_all} ${cof_all}
fix             m4 all property/global coefficientFriction peratomtypepair 6                 0.1 0.1 0.1 0.1 0.1 0.1                 0.1 0.1 0.1 0.1 0.1 0.1                 0.1 0.1 0.1 0.1 0.1 ${cof_all}                 ${cof_all} ${cof_all} ${cof_all} ${cof_all} ${cof_all} ${cof_all}                 ${cof_all} ${cof_all} ${cof_all} ${cof_all} ${cof_all} ${cof_all}                 ${cof_all} ${cof_all} ${cof_all} ${cof_all} ${cof_all} ${cof_all}
fix             m4 all property/global coefficientFriction peratomtypepair 6                 0.1 0.1 0.1 0.1 0.1 0.1                 0.1 0.1 0.1 0.1 0.1 0.1                 0.1 0.1 0.1 0.1 0.1 0.1                 ${cof_all} ${cof_all} ${cof_all} ${cof_all} ${cof_all} ${cof_all}                 ${cof_all} ${cof_all} ${cof_all} ${cof_all} ${cof_all} ${cof_all}                 ${cof_all} ${cof_all} ${cof_all} ${cof_all} ${cof_all} ${cof_all}
fix             m4 all property/global coefficientFriction peratomtypepair 6                 0.1 0.1 0.1 0.1 0.1 0.1                 0.1 0.1 0.1 0.1 0.1 0.1                 0.1 0.1 0.1 0.1 0.1 0.1                 0.1 ${cof_all} ${cof_all} ${cof_all} ${cof_all} ${cof_all}                 ${cof_all} ${cof_all} ${cof_all} ${cof_all} ${cof_all} ${cof_all}                 ${cof_all} ${cof_all} ${cof_all} ${cof_all} ${cof_all} ${cof_all}
fix             m4 all property/global coefficientFriction peratomtypepair 6                 0.1 0.1 0.1 0.1 0.1 0.1                 0.1 0.1 0.1 0.1 0.1 0.1                 0.1 0.1 0.1 0.1 0.1 0.1                 0.1 0.1 ${cof_all} ${cof_all} ${cof_all} ${cof_all}                 ${cof_all} ${cof_all} ${cof_all} ${cof_all} ${cof_all} ${cof_all}                 ${cof_all} ${cof_all} ${cof_all} ${cof_all} ${cof_all} ${cof_all}
fix             m4 all property/global coefficientFriction peratomtypepair 6                 0.1 0.1 0.1 0.1 0.1 0.1                 0.1 0.1 0.1 0.1 0.1 0.1                 0.1 0.1 0.1 0.1 0.1 0.1                 0.1 0.1 0.1 ${cof_all} ${cof_all} ${cof_all}                 ${cof_all} ${cof_all} ${cof_all} ${cof_all} ${cof_all} ${cof_all}                 ${cof_all} ${cof_all} ${cof_all} ${cof_all} ${cof_all} ${cof_all}
fix             m4 all property/global coefficientFriction peratomtypepair 6                 0.1 0.1 0.1 0.1 0.1 0.1                 0.1 0.1 0.1 0.1 0.1 0.1                 0.1 0.1 0.1 0.1 0.1 0.1                 0.1 0.1 0.1 0.1 ${cof_all} ${cof_all}                 ${cof_all} ${cof_all} ${cof_all} ${cof_all} ${cof_all} ${cof_all}                 ${cof_all} ${cof_all} ${cof_all} ${cof_all} ${cof_all} ${cof_all}
fix             m4 all property/global coefficientFriction peratomtypepair 6                 0.1 0.1 0.1 0.1 0.1 0.1                 0.1 0.1 0.1 0.1 0.1 0.1                 0.1 0.1 0.1 0.1 0.1 0.1                 0.1 0.1 0.1 0.1 0.1 ${cof_all}                 ${cof_all} ${cof_all} ${cof_all} ${cof_all} ${cof_all} ${cof_all}                 ${cof_all} ${cof_all} ${cof_all} ${cof_all} ${cof_all} ${cof_all}
fix             m4 all property/global coefficientFriction peratomtypepair 6                 0.1 0.1 0.1 0.1 0.1 0.1                 0.1 0.1 0.1 0.1 0.1 0.1                 0.1 0.1 0.1 0.1 0.1 0.1                 0.1 0.1 0.1 0.1 0.1 0.1                 ${cof_all} ${cof_all} ${cof_all} ${cof_all} ${cof_all} ${cof_all}                 ${cof_all} ${cof_all} ${cof_all} ${cof_all} ${cof_all} ${cof_all}
fix             m4 all property/global coefficientFriction peratomtypepair 6                 0.1 0.1 0.1 0.1 0.1 0.1                 0.1 0.1 0.1 0.1 0.1 0.1                 0.1 0.1 0.1 0.1 0.1 0.1                 0.1 0.1 0.1 0.1 0.1 0.1                 0.1 ${cof_all} ${cof_all} ${cof_all} ${cof_all} ${cof_all}                 ${cof_all} ${cof_all} ${cof_all} ${cof_all} ${cof_all} ${cof_all}
fix             m4 all property/global coefficientFriction peratomtypepair 6                 0.1 0.1 0.1 0.1 0.1 0.1                 0.1 0.1 0.1 0.1 0.1 0.1                 0.1 0.1 0.1 0.1 0.1 0.1                 0.1 0.1 0.1 0.1 0.1 0.1                 0.1 0.1 ${cof_all} ${cof_all} ${cof_all} ${cof_all}                 ${cof_all} ${cof_all} ${cof_all} ${cof_all} ${cof_all} ${cof_all}
fix             m4 all property/global coefficientFriction peratomtypepair 6                 0.1 0.1 0.1 0.1 0.1 0.1                 0.1 0.1 0.1 0.1 0.1 0.1                 0.1 0.1 0.1 0.1 0.1 0.1                 0.1 0.1 0.1 0.1 0.1 0.1                 0.1 0.1 0.1 ${cof_all} ${cof_all} ${cof_all}                 ${cof_all} ${cof_all} ${cof_all} ${cof_all} ${cof_all} ${cof_all}
fix             m4 all property/global coefficientFriction peratomtypepair 6                 0.1 0.1 0.1 0.1 0.1 0.1                 0.1 0.1 0.1 0.1 0.1 0.1                 0.1 0.1 0.1 0.1 0.1 0.1                 0.1 0.1 0.1 0.1 0.1 0.1                 0.1 0.1 0.1 0.1 ${cof_all} ${cof_all}                 ${cof_all} ${cof_all} ${cof_all} ${cof_all} ${cof_all} ${cof_all}
fix             m4 all property/global coefficientFriction peratomtypepair 6                 0.1 0.1 0.1 0.1 0.1 0.1                 0.1 0.1 0.1 0.1 0.1 0.1                 0.1 0.1 0.1 0.1 0.1 0.1                 0.1 0.1 0.1 0.1 0.1 0.1                 0.1 0.1 0.1 0.1 0.1 ${cof_all}                 ${cof_all} ${cof_all} ${cof_all} ${cof_all} ${cof_all} ${cof_all}
fix             m4 all property/global coefficientFriction peratomtypepair 6                 0.1 0.1 0.1 0.1 0.1 0.1                 0.1 0.1 0.1 0.1 0.1 0.1                 0.1 0.1 0.1 0.1 0.1 0.1                 0.1 0.1 0.1 0.1 0.1 0.1                 0.1 0.1 0.1 0.1 0.1 0.1                 ${cof_all} ${cof_all} ${cof_all} ${cof_all} ${cof_all} ${cof_all}
fix             m4 all property/global coefficientFriction peratomtypepair 6                 0.1 0.1 0.1 0.1 0.1 0.1                 0.1 0.1 0.1 0.1 0.1 0.1                 0.1 0.1 0.1 0.1 0.1 0.1                 0.1 0.1 0.1 0.1 0.1 0.1                 0.1 0.1 0.1 0.1 0.1 0.1                 0.1 ${cof_all} ${cof_all} ${cof_all} ${cof_all} ${cof_all}
fix             m4 all property/global coefficientFriction peratomtypepair 6                 0.1 0.1 0.1 0.1 0.1 0.1                 0.1 0.1 0.1 0.1 0.1 0.1                 0.1 0.1 0.1 0.1 0.1 0.1                 0.1 0.1 0.1 0.1 0.1 0.1                 0.1 0.1 0.1 0.1 0.1 0.1                 0.1 0.1 ${cof_all} ${cof_all} ${cof_all} ${cof_all}
fix             m4 all property/global coefficientFriction peratomtypepair 6                 0.1 0.1 0.1 0.1 0.1 0.1                 0.1 0.1 0.1 0.1 0.1 0.1                 0.1 0.1 0.1 0.1 0.1 0.1                 0.1 0.1 0.1 0.1 0.1 0.1                 0.1 0.1 0.1 0.1 0.1 0.1                 0.1 0.1 0.1 ${cof_all} ${cof_all} ${cof_all}
fix             m4 all property/global coefficientFriction peratomtypepair 6                 0.1 0.1 0.1 0.1 0.1 0.1                 0.1 0.1 0.1 0.1 0.1 0.1                 0.1 0.1 0.1 0.1 0.1 0.1                 0.1 0.1 0.1 0.1 0.1 0.1                 0.1 0.1 0.1 0.1 0.1 0.1                 0.1 0.1 0.1 0.1 ${cof_all} ${cof_all}
fix             m4 all property/global coefficientFriction peratomtypepair 6                 0.1 0.1 0.1 0.1 0.1 0.1                 0.1 0.1 0.1 0.1 0.1 0.1                 0.1 0.1 0.1 0.1 0.1 0.1                 0.1 0.1 0.1 0.1 0.1 0.1                 0.1 0.1 0.1 0.1 0.1 0.1                 0.1 0.1 0.1 0.1 0.1 ${cof_all}
fix             m4 all property/global coefficientFriction peratomtypepair 6                 0.1 0.1 0.1 0.1 0.1 0.1                 0.1 0.1 0.1 0.1 0.1 0.1                 0.1 0.1 0.1 0.1 0.1 0.1                 0.1 0.1 0.1 0.1 0.1 0.1                 0.1 0.1 0.1 0.1 0.1 0.1                 0.1 0.1 0.1 0.1 0.1 0.1

# Coefficient of rolling friction (all 0.1 from compaction)
variable        corf_all equal 0.1
fix             m5 all property/global coefficientRollingFriction peratomtypepair 6                 ${corf_all} ${corf_all} ${corf_all} ${corf_all} ${corf_all} ${corf_all}                 ${corf_all} ${corf_all} ${corf_all} ${corf_all} ${corf_all} ${corf_all}                 ${corf_all} ${corf_all} ${corf_all} ${corf_all} ${corf_all} ${corf_all}                 ${corf_all} ${corf_all} ${corf_all} ${corf_all} ${corf_all} ${corf_all}                 ${corf_all} ${corf_all} ${corf_all} ${corf_all} ${corf_all} ${corf_all}                 ${corf_all} ${corf_all} ${corf_all} ${corf_all} ${corf_all} ${corf_all}
fix             m5 all property/global coefficientRollingFriction peratomtypepair 6                 0.1 ${corf_all} ${corf_all} ${corf_all} ${corf_all} ${corf_all}                 ${corf_all} ${corf_all} ${corf_all} ${corf_all} ${corf_all} ${corf_all}                 ${corf_all} ${corf_all} ${corf_all} ${corf_all} ${corf_all} ${corf_all}                 ${corf_all} ${corf_all} ${corf_all} ${corf_all} ${corf_all} ${corf_all}                 ${corf_all} ${corf_all} ${corf_all} ${corf_all} ${corf_all} ${corf_all}                 ${corf_all} ${corf_all} ${corf_all} ${corf_all} ${corf_all} ${corf_all}
fix             m5 all property/global coefficientRollingFriction peratomtypepair 6                 0.1 0.1 ${corf_all} ${corf_all} ${corf_all} ${corf_all}                 ${corf_all} ${corf_all} ${corf_all} ${corf_all} ${corf_all} ${corf_all}                 ${corf_all} ${corf_all} ${corf_all} ${corf_all} ${corf_all} ${corf_all}                 ${corf_all} ${corf_all} ${corf_all} ${corf_all} ${corf_all} ${corf_all}                 ${corf_all} ${corf_all} ${corf_all} ${corf_all} ${corf_all} ${corf_all}                 ${corf_all} ${corf_all} ${corf_all} ${corf_all} ${corf_all} ${corf_all}
fix             m5 all property/global coefficientRollingFriction peratomtypepair 6                 0.1 0.1 0.1 ${corf_all} ${corf_all} ${corf_all}                 ${corf_all} ${corf_all} ${corf_all} ${corf_all} ${corf_all} ${corf_all}                 ${corf_all} ${corf_all} ${corf_all} ${corf_all} ${corf_all} ${corf_all}                 ${corf_all} ${corf_all} ${corf_all} ${corf_all} ${corf_all} ${corf_all}                 ${corf_all} ${corf_all} ${corf_all} ${corf_all} ${corf_all} ${corf_all}                 ${corf_all} ${corf_all} ${corf_all} ${corf_all} ${corf_all} ${corf_all}
fix             m5 all property/global coefficientRollingFriction peratomtypepair 6                 0.1 0.1 0.1 0.1 ${corf_all} ${corf_all}                 ${corf_all} ${corf_all} ${corf_all} ${corf_all} ${corf_all} ${corf_all}                 ${corf_all} ${corf_all} ${corf_all} ${corf_all} ${corf_all} ${corf_all}                 ${corf_all} ${corf_all} ${corf_all} ${corf_all} ${corf_all} ${corf_all}                 ${corf_all} ${corf_all} ${corf_all} ${corf_all} ${corf_all} ${corf_all}                 ${corf_all} ${corf_all} ${corf_all} ${corf_all} ${corf_all} ${corf_all}
fix             m5 all property/global coefficientRollingFriction peratomtypepair 6                 0.1 0.1 0.1 0.1 0.1 ${corf_all}                 ${corf_all} ${corf_all} ${corf_all} ${corf_all} ${corf_all} ${corf_all}                 ${corf_all} ${corf_all} ${corf_all} ${corf_all} ${corf_all} ${corf_all}                 ${corf_all} ${corf_all} ${corf_all} ${corf_all} ${corf_all} ${corf_all}                 ${corf_all} ${corf_all} ${corf_all} ${corf_all} ${corf_all} ${corf_all}                 ${corf_all} ${corf_all} ${corf_all} ${corf_all} ${corf_all} ${corf_all}
fix             m5 all property/global coefficientRollingFriction peratomtypepair 6                 0.1 0.1 0.1 0.1 0.1 0.1                 ${corf_all} ${corf_all} ${corf_all} ${corf_all} ${corf_all} ${corf_all}                 ${corf_all} ${corf_all} ${corf_all} ${corf_all} ${corf_all} ${corf_all}                 ${corf_all} ${corf_all} ${corf_all} ${corf_all} ${corf_all} ${corf_all}                 ${corf_all} ${corf_all} ${corf_all} ${corf_all} ${corf_all} ${corf_all}                 ${corf_all} ${corf_all} ${corf_all} ${corf_all} ${corf_all} ${corf_all}
fix             m5 all property/global coefficientRollingFriction peratomtypepair 6                 0.1 0.1 0.1 0.1 0.1 0.1                 0.1 ${corf_all} ${corf_all} ${corf_all} ${corf_all} ${corf_all}                 ${corf_all} ${corf_all} ${corf_all} ${corf_all} ${corf_all} ${corf_all}                 ${corf_all} ${corf_all} ${corf_all} ${corf_all} ${corf_all} ${corf_all}                 ${corf_all} ${corf_all} ${corf_all} ${corf_all} ${corf_all} ${corf_all}                 ${corf_all} ${corf_all} ${corf_all} ${corf_all} ${corf_all} ${corf_all}
fix             m5 all property/global coefficientRollingFriction peratomtypepair 6                 0.1 0.1 0.1 0.1 0.1 0.1                 0.1 0.1 ${corf_all} ${corf_all} ${corf_all} ${corf_all}                 ${corf_all} ${corf_all} ${corf_all} ${corf_all} ${corf_all} ${corf_all}                 ${corf_all} ${corf_all} ${corf_all} ${corf_all} ${corf_all} ${corf_all}                 ${corf_all} ${corf_all} ${corf_all} ${corf_all} ${corf_all} ${corf_all}                 ${corf_all} ${corf_all} ${corf_all} ${corf_all} ${corf_all} ${corf_all}
fix             m5 all property/global coefficientRollingFriction peratomtypepair 6                 0.1 0.1 0.1 0.1 0.1 0.1                 0.1 0.1 0.1 ${corf_all} ${corf_all} ${corf_all}                 ${corf_all} ${corf_all} ${corf_all} ${corf_all} ${corf_all} ${corf_all}                 ${corf_all} ${corf_all} ${corf_all} ${corf_all} ${corf_all} ${corf_all}                 ${corf_all} ${corf_all} ${corf_all} ${corf_all} ${corf_all} ${corf_all}                 ${corf_all} ${corf_all} ${corf_all} ${corf_all} ${corf_all} ${corf_all}
fix             m5 all property/global coefficientRollingFriction peratomtypepair 6                 0.1 0.1 0.1 0.1 0.1 0.1                 0.1 0.1 0.1 0.1 ${corf_all} ${corf_all}                 ${corf_all} ${corf_all} ${corf_all} ${corf_all} ${corf_all} ${corf_all}                 ${corf_all} ${corf_all} ${corf_all} ${corf_all} ${corf_all} ${corf_all}                 ${corf_all} ${corf_all} ${corf_all} ${corf_all} ${corf_all} ${corf_all}                 ${corf_all} ${corf_all} ${corf_all} ${corf_all} ${corf_all} ${corf_all}
fix             m5 all property/global coefficientRollingFriction peratomtypepair 6                 0.1 0.1 0.1 0.1 0.1 0.1                 0.1 0.1 0.1 0.1 0.1 ${corf_all}                 ${corf_all} ${corf_all} ${corf_all} ${corf_all} ${corf_all} ${corf_all}                 ${corf_all} ${corf_all} ${corf_all} ${corf_all} ${corf_all} ${corf_all}                 ${corf_all} ${corf_all} ${corf_all} ${corf_all} ${corf_all} ${corf_all}                 ${corf_all} ${corf_all} ${corf_all} ${corf_all} ${corf_all} ${corf_all}
fix             m5 all property/global coefficientRollingFriction peratomtypepair 6                 0.1 0.1 0.1 0.1 0.1 0.1                 0.1 0.1 0.1 0.1 0.1 0.1                 ${corf_all} ${corf_all} ${corf_all} ${corf_all} ${corf_all} ${corf_all}                 ${corf_all} ${corf_all} ${corf_all} ${corf_all} ${corf_all} ${corf_all}                 ${corf_all} ${corf_all} ${corf_all} ${corf_all} ${corf_all} ${corf_all}                 ${corf_all} ${corf_all} ${corf_all} ${corf_all} ${corf_all} ${corf_all}
fix             m5 all property/global coefficientRollingFriction peratomtypepair 6                 0.1 0.1 0.1 0.1 0.1 0.1                 0.1 0.1 0.1 0.1 0.1 0.1                 0.1 ${corf_all} ${corf_all} ${corf_all} ${corf_all} ${corf_all}                 ${corf_all} ${corf_all} ${corf_all} ${corf_all} ${corf_all} ${corf_all}                 ${corf_all} ${corf_all} ${corf_all} ${corf_all} ${corf_all} ${corf_all}                 ${corf_all} ${corf_all} ${corf_all} ${corf_all} ${corf_all} ${corf_all}
fix             m5 all property/global coefficientRollingFriction peratomtypepair 6                 0.1 0.1 0.1 0.1 0.1 0.1                 0.1 0.1 0.1 0.1 0.1 0.1                 0.1 0.1 ${corf_all} ${corf_all} ${corf_all} ${corf_all}                 ${corf_all} ${corf_all} ${corf_all} ${corf_all} ${corf_all} ${corf_all}                 ${corf_all} ${corf_all} ${corf_all} ${corf_all} ${corf_all} ${corf_all}                 ${corf_all} ${corf_all} ${corf_all} ${corf_all} ${corf_all} ${corf_all}
fix             m5 all property/global coefficientRollingFriction peratomtypepair 6                 0.1 0.1 0.1 0.1 0.1 0.1                 0.1 0.1 0.1 0.1 0.1 0.1                 0.1 0.1 0.1 ${corf_all} ${corf_all} ${corf_all}                 ${corf_all} ${corf_all} ${corf_all} ${corf_all} ${corf_all} ${corf_all}                 ${corf_all} ${corf_all} ${corf_all} ${corf_all} ${corf_all} ${corf_all}                 ${corf_all} ${corf_all} ${corf_all} ${corf_all} ${corf_all} ${corf_all}
fix             m5 all property/global coefficientRollingFriction peratomtypepair 6                 0.1 0.1 0.1 0.1 0.1 0.1                 0.1 0.1 0.1 0.1 0.1 0.1                 0.1 0.1 0.1 0.1 ${corf_all} ${corf_all}                 ${corf_all} ${corf_all} ${corf_all} ${corf_all} ${corf_all} ${corf_all}                 ${corf_all} ${corf_all} ${corf_all} ${corf_all} ${corf_all} ${corf_all}                 ${corf_all} ${corf_all} ${corf_all} ${corf_all} ${corf_all} ${corf_all}
fix             m5 all property/global coefficientRollingFriction peratomtypepair 6                 0.1 0.1 0.1 0.1 0.1 0.1                 0.1 0.1 0.1 0.1 0.1 0.1                 0.1 0.1 0.1 0.1 0.1 ${corf_all}                 ${corf_all} ${corf_all} ${corf_all} ${corf_all} ${corf_all} ${corf_all}                 ${corf_all} ${corf_all} ${corf_all} ${corf_all} ${corf_all} ${corf_all}                 ${corf_all} ${corf_all} ${corf_all} ${corf_all} ${corf_all} ${corf_all}
fix             m5 all property/global coefficientRollingFriction peratomtypepair 6                 0.1 0.1 0.1 0.1 0.1 0.1                 0.1 0.1 0.1 0.1 0.1 0.1                 0.1 0.1 0.1 0.1 0.1 0.1                 ${corf_all} ${corf_all} ${corf_all} ${corf_all} ${corf_all} ${corf_all}                 ${corf_all} ${corf_all} ${corf_all} ${corf_all} ${corf_all} ${corf_all}                 ${corf_all} ${corf_all} ${corf_all} ${corf_all} ${corf_all} ${corf_all}
fix             m5 all property/global coefficientRollingFriction peratomtypepair 6                 0.1 0.1 0.1 0.1 0.1 0.1                 0.1 0.1 0.1 0.1 0.1 0.1                 0.1 0.1 0.1 0.1 0.1 0.1                 0.1 ${corf_all} ${corf_all} ${corf_all} ${corf_all} ${corf_all}                 ${corf_all} ${corf_all} ${corf_all} ${corf_all} ${corf_all} ${corf_all}                 ${corf_all} ${corf_all} ${corf_all} ${corf_all} ${corf_all} ${corf_all}
fix             m5 all property/global coefficientRollingFriction peratomtypepair 6                 0.1 0.1 0.1 0.1 0.1 0.1                 0.1 0.1 0.1 0.1 0.1 0.1                 0.1 0.1 0.1 0.1 0.1 0.1                 0.1 0.1 ${corf_all} ${corf_all} ${corf_all} ${corf_all}                 ${corf_all} ${corf_all} ${corf_all} ${corf_all} ${corf_all} ${corf_all}                 ${corf_all} ${corf_all} ${corf_all} ${corf_all} ${corf_all} ${corf_all}
fix             m5 all property/global coefficientRollingFriction peratomtypepair 6                 0.1 0.1 0.1 0.1 0.1 0.1                 0.1 0.1 0.1 0.1 0.1 0.1                 0.1 0.1 0.1 0.1 0.1 0.1                 0.1 0.1 0.1 ${corf_all} ${corf_all} ${corf_all}                 ${corf_all} ${corf_all} ${corf_all} ${corf_all} ${corf_all} ${corf_all}                 ${corf_all} ${corf_all} ${corf_all} ${corf_all} ${corf_all} ${corf_all}
fix             m5 all property/global coefficientRollingFriction peratomtypepair 6                 0.1 0.1 0.1 0.1 0.1 0.1                 0.1 0.1 0.1 0.1 0.1 0.1                 0.1 0.1 0.1 0.1 0.1 0.1                 0.1 0.1 0.1 0.1 ${corf_all} ${corf_all}                 ${corf_all} ${corf_all} ${corf_all} ${corf_all} ${corf_all} ${corf_all}                 ${corf_all} ${corf_all} ${corf_all} ${corf_all} ${corf_all} ${corf_all}
fix             m5 all property/global coefficientRollingFriction peratomtypepair 6                 0.1 0.1 0.1 0.1 0.1 0.1                 0.1 0.1 0.1 0.1 0.1 0.1                 0.1 0.1 0.1 0.1 0.1 0.1                 0.1 0.1 0.1 0.1 0.1 ${corf_all}                 ${corf_all} ${corf_all} ${corf_all} ${corf_all} ${corf_all} ${corf_all}                 ${corf_all} ${corf_all} ${corf_all} ${corf_all} ${corf_all} ${corf_all}
fix             m5 all property/global coefficientRollingFriction peratomtypepair 6                 0.1 0.1 0.1 0.1 0.1 0.1                 0.1 0.1 0.1 0.1 0.1 0.1                 0.1 0.1 0.1 0.1 0.1 0.1                 0.1 0.1 0.1 0.1 0.1 0.1                 ${corf_all} ${corf_all} ${corf_all} ${corf_all} ${corf_all} ${corf_all}                 ${corf_all} ${corf_all} ${corf_all} ${corf_all} ${corf_all} ${corf_all}
fix             m5 all property/global coefficientRollingFriction peratomtypepair 6                 0.1 0.1 0.1 0.1 0.1 0.1                 0.1 0.1 0.1 0.1 0.1 0.1                 0.1 0.1 0.1 0.1 0.1 0.1                 0.1 0.1 0.1 0.1 0.1 0.1                 0.1 ${corf_all} ${corf_all} ${corf_all} ${corf_all} ${corf_all}                 ${corf_all} ${corf_all} ${corf_all} ${corf_all} ${corf_all} ${corf_all}
fix             m5 all property/global coefficientRollingFriction peratomtypepair 6                 0.1 0.1 0.1 0.1 0.1 0.1                 0.1 0.1 0.1 0.1 0.1 0.1                 0.1 0.1 0.1 0.1 0.1 0.1                 0.1 0.1 0.1 0.1 0.1 0.1                 0.1 0.1 ${corf_all} ${corf_all} ${corf_all} ${corf_all}                 ${corf_all} ${corf_all} ${corf_all} ${corf_all} ${corf_all} ${corf_all}
fix             m5 all property/global coefficientRollingFriction peratomtypepair 6                 0.1 0.1 0.1 0.1 0.1 0.1                 0.1 0.1 0.1 0.1 0.1 0.1                 0.1 0.1 0.1 0.1 0.1 0.1                 0.1 0.1 0.1 0.1 0.1 0.1                 0.1 0.1 0.1 ${corf_all} ${corf_all} ${corf_all}                 ${corf_all} ${corf_all} ${corf_all} ${corf_all} ${corf_all} ${corf_all}
fix             m5 all property/global coefficientRollingFriction peratomtypepair 6                 0.1 0.1 0.1 0.1 0.1 0.1                 0.1 0.1 0.1 0.1 0.1 0.1                 0.1 0.1 0.1 0.1 0.1 0.1                 0.1 0.1 0.1 0.1 0.1 0.1                 0.1 0.1 0.1 0.1 ${corf_all} ${corf_all}                 ${corf_all} ${corf_all} ${corf_all} ${corf_all} ${corf_all} ${corf_all}
fix             m5 all property/global coefficientRollingFriction peratomtypepair 6                 0.1 0.1 0.1 0.1 0.1 0.1                 0.1 0.1 0.1 0.1 0.1 0.1                 0.1 0.1 0.1 0.1 0.1 0.1                 0.1 0.1 0.1 0.1 0.1 0.1                 0.1 0.1 0.1 0.1 0.1 ${corf_all}                 ${corf_all} ${corf_all} ${corf_all} ${corf_all} ${corf_all} ${corf_all}
fix             m5 all property/global coefficientRollingFriction peratomtypepair 6                 0.1 0.1 0.1 0.1 0.1 0.1                 0.1 0.1 0.1 0.1 0.1 0.1                 0.1 0.1 0.1 0.1 0.1 0.1                 0.1 0.1 0.1 0.1 0.1 0.1                 0.1 0.1 0.1 0.1 0.1 0.1                 ${corf_all} ${corf_all} ${corf_all} ${corf_all} ${corf_all} ${corf_all}
fix             m5 all property/global coefficientRollingFriction peratomtypepair 6                 0.1 0.1 0.1 0.1 0.1 0.1                 0.1 0.1 0.1 0.1 0.1 0.1                 0.1 0.1 0.1 0.1 0.1 0.1                 0.1 0.1 0.1 0.1 0.1 0.1                 0.1 0.1 0.1 0.1 0.1 0.1                 0.1 ${corf_all} ${corf_all} ${corf_all} ${corf_all} ${corf_all}
fix             m5 all property/global coefficientRollingFriction peratomtypepair 6                 0.1 0.1 0.1 0.1 0.1 0.1                 0.1 0.1 0.1 0.1 0.1 0.1                 0.1 0.1 0.1 0.1 0.1 0.1                 0.1 0.1 0.1 0.1 0.1 0.1                 0.1 0.1 0.1 0.1 0.1 0.1                 0.1 0.1 ${corf_all} ${corf_all} ${corf_all} ${corf_all}
fix             m5 all property/global coefficientRollingFriction peratomtypepair 6                 0.1 0.1 0.1 0.1 0.1 0.1                 0.1 0.1 0.1 0.1 0.1 0.1                 0.1 0.1 0.1 0.1 0.1 0.1                 0.1 0.1 0.1 0.1 0.1 0.1                 0.1 0.1 0.1 0.1 0.1 0.1                 0.1 0.1 0.1 ${corf_all} ${corf_all} ${corf_all}
fix             m5 all property/global coefficientRollingFriction peratomtypepair 6                 0.1 0.1 0.1 0.1 0.1 0.1                 0.1 0.1 0.1 0.1 0.1 0.1                 0.1 0.1 0.1 0.1 0.1 0.1                 0.1 0.1 0.1 0.1 0.1 0.1                 0.1 0.1 0.1 0.1 0.1 0.1                 0.1 0.1 0.1 0.1 ${corf_all} ${corf_all}
fix             m5 all property/global coefficientRollingFriction peratomtypepair 6                 0.1 0.1 0.1 0.1 0.1 0.1                 0.1 0.1 0.1 0.1 0.1 0.1                 0.1 0.1 0.1 0.1 0.1 0.1                 0.1 0.1 0.1 0.1 0.1 0.1                 0.1 0.1 0.1 0.1 0.1 0.1                 0.1 0.1 0.1 0.1 0.1 ${corf_all}
fix             m5 all property/global coefficientRollingFriction peratomtypepair 6                 0.1 0.1 0.1 0.1 0.1 0.1                 0.1 0.1 0.1 0.1 0.1 0.1                 0.1 0.1 0.1 0.1 0.1 0.1                 0.1 0.1 0.1 0.1 0.1 0.1                 0.1 0.1 0.1 0.1 0.1 0.1                 0.1 0.1 0.1 0.1 0.1 0.1

# Cohesion energy density (from compaction script)
fix             m6 all property/global cohesionEnergyDensity peratomtypepair 6                 100000  100000  100000  0       0   100000                  100000  100000  100000  0       0   100000                  100000  100000  100000  0       0   100000                  0       0       0       0       0   0                       0       0       0       0       0   0                       100000  100000  100000  0       0   100000

# --- 6. PAIR STYLE AND WALLS ---
pair_style gran model hertz tangential history cohesion sjkr
WARNING: 
	The contact model you specified is not located in any whitelist.
	Because of this the model will be run in an unoptimized version (increasing runtime by up to 20%).
	In order to optimize this model you have the following options:
		(i)  Run the genAutoExamplesWhitelist.sh script in your LIGGGHTS(R) source folder to automatically parse the input script
		(ii) Add the model combination by hand to your style_contact_model_user.whitelist that can be found in your LIGGGHTS(R) source folder
		(iii) Use the ENABLE_MODEL_* flag when building with cmake.
	If you perform one of the steps above LIGGGHTS(R) needs to be recompiled to generate the optimized code.

 (/Users/howardtu/Documents/modeling/localPackage/LIGGGHTS-PUBLIC/src/contact_models.h:365)
pair_coeff * *

# Re-establish wall boundaries (from compaction script)
fix xwalls1 ptc wall/gran model hertz tangential history primitive type 4 xplane -10
WARNING: 
	The contact model you specified is not located in any whitelist.
	Because of this the model will be run in an unoptimized version (increasing runtime by up to 20%).
	In order to optimize this model you have the following options:
		(i)  Run the genAutoExamplesWhitelist.sh script in your LIGGGHTS(R) source folder to automatically parse the input script
		(ii) Add the model combination by hand to your style_contact_model_user.whitelist that can be found in your LIGGGHTS(R) source folder
		(iii) Use the ENABLE_MODEL_* flag when building with cmake.
	If you perform one of the steps above LIGGGHTS(R) needs to be recompiled to generate the optimized code.

 (/Users/howardtu/Documents/modeling/localPackage/LIGGGHTS-PUBLIC/src/contact_models.h:365)
fix xwalls2 ptc wall/gran model hertz tangential history primitive type 4 xplane 10
WARNING: 
	The contact model you specified is not located in any whitelist.
	Because of this the model will be run in an unoptimized version (increasing runtime by up to 20%).
	In order to optimize this model you have the following options:
		(i)  Run the genAutoExamplesWhitelist.sh script in your LIGGGHTS(R) source folder to automatically parse the input script
		(ii) Add the model combination by hand to your style_contact_model_user.whitelist that can be found in your LIGGGHTS(R) source folder
		(iii) Use the ENABLE_MODEL_* flag when building with cmake.
	If you perform one of the steps above LIGGGHTS(R) needs to be recompiled to generate the optimized code.

 (/Users/howardtu/Documents/modeling/localPackage/LIGGGHTS-PUBLIC/src/contact_models.h:365)
fix ywalls1 ptc wall/gran model hertz tangential history primitive type 4 yplane -10
WARNING: 
	The contact model you specified is not located in any whitelist.
	Because of this the model will be run in an unoptimized version (increasing runtime by up to 20%).
	In order to optimize this model you have the following options:
		(i)  Run the genAutoExamplesWhitelist.sh script in your LIGGGHTS(R) source folder to automatically parse the input script
		(ii) Add the model combination by hand to your style_contact_model_user.whitelist that can be found in your LIGGGHTS(R) source folder
		(iii) Use the ENABLE_MODEL_* flag when building with cmake.
	If you perform one of the steps above LIGGGHTS(R) needs to be recompiled to generate the optimized code.

 (/Users/howardtu/Documents/modeling/localPackage/LIGGGHTS-PUBLIC/src/contact_models.h:365)
fix ywalls2 ptc wall/gran model hertz tangential history primitive type 4 yplane 10
WARNING: 
	The contact model you specified is not located in any whitelist.
	Because of this the model will be run in an unoptimized version (increasing runtime by up to 20%).
	In order to optimize this model you have the following options:
		(i)  Run the genAutoExamplesWhitelist.sh script in your LIGGGHTS(R) source folder to automatically parse the input script
		(ii) Add the model combination by hand to your style_contact_model_user.whitelist that can be found in your LIGGGHTS(R) source folder
		(iii) Use the ENABLE_MODEL_* flag when building with cmake.
	If you perform one of the steps above LIGGGHTS(R) needs to be recompiled to generate the optimized code.

 (/Users/howardtu/Documents/modeling/localPackage/LIGGGHTS-PUBLIC/src/contact_models.h:365)
fix zwalls1 ptc wall/gran model hertz tangential history primitive type 4 zplane 0
WARNING: 
	The contact model you specified is not located in any whitelist.
	Because of this the model will be run in an unoptimized version (increasing runtime by up to 20%).
	In order to optimize this model you have the following options:
		(i)  Run the genAutoExamplesWhitelist.sh script in your LIGGGHTS(R) source folder to automatically parse the input script
		(ii) Add the model combination by hand to your style_contact_model_user.whitelist that can be found in your LIGGGHTS(R) source folder
		(iii) Use the ENABLE_MODEL_* flag when building with cmake.
	If you perform one of the steps above LIGGGHTS(R) needs to be recompiled to generate the optimized code.

 (/Users/howardtu/Documents/modeling/localPackage/LIGGGHTS-PUBLIC/src/contact_models.h:365)
fix zwalls2 ptc wall/gran model hertz tangential history primitive type 4 zplane 75
WARNING: 
	The contact model you specified is not located in any whitelist.
	Because of this the model will be run in an unoptimized version (increasing runtime by up to 20%).
	In order to optimize this model you have the following options:
		(i)  Run the genAutoExamplesWhitelist.sh script in your LIGGGHTS(R) source folder to automatically parse the input script
		(ii) Add the model combination by hand to your style_contact_model_user.whitelist that can be found in your LIGGGHTS(R) source folder
		(iii) Use the ENABLE_MODEL_* flag when building with cmake.
	If you perform one of the steps above LIGGGHTS(R) needs to be recompiled to generate the optimized code.

 (/Users/howardtu/Documents/modeling/localPackage/LIGGGHTS-PUBLIC/src/contact_models.h:365)

# --- 7. INTEGRATION ---
fix             integr all nve/sphere

# Warn if timestep > 10% of Rayleigh time or 10% of Hertz time
fix             ts_check all check/timestep/gran 1 0.1 0.1 warn yes

# --- 8. ANALYSIS SETUP ---
# Get current positions of different layers
compute         z_cc1_avg cc1 reduce ave z
compute         z_am_avg am reduce ave z
compute         z_se_avg se reduce ave z
compute         z_cc2_avg cc2 reduce ave z

# Print layer information
variable        z_cc1 equal c_z_cc1_avg
variable        z_am equal c_z_am_avg
variable        z_se equal c_z_se_avg
variable        z_cc2 equal c_z_cc2_avg

# Count particles
variable        n_cc1 equal count(cc1)
variable        n_am equal count(am)
variable        n_se equal count(se)
variable        n_cc2 equal count(cc2)
variable        n_ghost equal count(ghost)

# FIXED Top and Bottom Layer from moving
fix 1 cc1 move linear 0 0 0
fix 2 cc2 move linear 0 0 0

# --- 9. BATTERY PHYSICS MODELS ---
print           "================================================"
================================================
print           "Setting up battery physics on compacted bed..."
Setting up battery physics on compacted bed...
print           "================================================"
================================================

# Check if we have AM particles
if              "${n_am} == 0" then "print 'ERROR: No AM particles found!'" quit

# 1. Initialize lithium content (Li/Si molar ratio) - only for AM particles
# Using micro units: adjust parameters accordingly
fix             li_content am property/atom/lithium_content initial 0.15 target 0.8 max 0.89

# 2. Calculate equilibrium potential - only for AM particles
# Temperature in K, potentials in V
fix             eq_pot am equilibrium_potential temperature 303. U_eq0 0.35 A 20 B -15

# 3. Calculate exchange current density - only for AM particles
# k_r in A/m^2, concentrations in mol/m^3
# Note: May need to adjust these values for micro units
fix             exch_current am exchange_current_density k_r 6e-12 c_li_max 83874. c_electrolyte 50608.

# 4. SOR solver for electric potential with type-based boundary conditions
# BC_types: bottom type (CC1=2), top type (CC2=6)
# BC_potentials: bottom potential (0V), top potential (0.04V)
fix             battery_solver all battery/sor omega 0.5 tolerance 1e-5 max_iter 10000000                 BC_types 2 6 BC_potentials 0.04 0.00 SE_type 3 AM_type 1 temperature 303.

# 5. Lithium diffusion - only for AM particles
# Diffusion coefficients in m^2/s (may need adjustment for micro units)
fix             li_diffusion am lithium_diffusion AM_type 1 D_min 1e-15 D_poor 1e-14 D_rich 1e-13                 kappa 20.0 c_li_max 83874.0

# 6. Radius expansion for Si particles (optional)
fix             radius_expand am radius_expansion AM_type 1 update_every 1 max_updates 1000000

# --- 10. COMPUTE SETUP FOR MONITORING ---
# Lithium content statistics
compute         li_avg am reduce ave f_lithiumContent
compute         li_min am reduce min f_lithiumContent
compute         li_max am reduce max f_lithiumContent

# Equilibrium potential statistics
compute         eq_avg am reduce ave f_equilibriumPotential
compute         eq_min am reduce min f_equilibriumPotential
compute         eq_max am reduce max f_equilibriumPotential

# Exchange current density statistics
compute         ex_avg am reduce ave f_exchangeCurrentDensity
compute         ex_min am reduce min f_exchangeCurrentDensity
compute         ex_max am reduce max f_exchangeCurrentDensity

# Electric potential by material type
compute         phi_se_avg se reduce ave f_electricPotential
compute         phi_am_avg am reduce ave f_electricPotential
compute         phi_cc1_avg cc1 reduce ave f_electricPotential
compute         phi_cc2_avg cc2 reduce ave f_electricPotential

# Current flow at AM-SE interfaces
compute         current_avg am reduce ave f_currentAMSE

variable       ts_rayleigh equal f_ts_check[1]
variable       ts_hertz    equal f_ts_check[2]
variable       ts_skin     equal f_ts_check[3]

# --- 11. OUTPUT SETTINGS ---
# Thermo output
thermo_style    custom step atoms ke c_li_max c_eq_avg c_ex_avg c_phi_se_avg c_phi_am_avg                 c_phi_cc1_avg c_phi_cc2_avg c_current_avg v_ts_rayleigh v_ts_hertz v_ts_skin
thermo          100
thermo_modify   lost ignore norm no

# Dump for visualization
# dump            dmp_battery all custom 100 post_bat2/battery_*.txt id type x y z vx vy vz fx fy fz omegax omegay omegaz radius #                f_lithiumContent f_equilibriumPotential f_exchangeCurrentDensity #                f_electricPotential f_currentAMSE f_hydrostaticStress

# --- 12. EQUILIBRATION RUN ---
print           "Running short equilibration to stabilize compacted structure with battery physics..."
Running short equilibration to stabilize compacted structure with battery physics...
run             1000
WARNING: One or more atoms are time integrated more than once (/Users/howardtu/Documents/modeling/localPackage/LIGGGHTS-PUBLIC/src/modify.cpp:304)
Setting up run at Tue Sep 16 14:21:06 2025

Memory usage per processor = 14.0567 Mbytes
    Step    Atoms         KinEng         li_max         eq_avg         ex_avg       phi_se_a       phi_am_a       phi_cc1_       phi_cc2_       current_       ts_rayle       ts_hertz        ts_skin 
       0     6575      262.07361           0.15     0.16322665   0.0056575132              0              0           0.04              0              0              0              0              0 
     100     6575        8457.06           0.15     0.16322665   0.0056575132    0.012277347              0           0.04              0 -4.8400839e-13  0.00017916297  3.2674031e-05  0.00035910286 
     200     6575      33179.269           0.15     0.16322665   0.0056575132    0.012774193              0           0.04              0 -4.8843108e-13  0.00017916297  3.7465558e-05  0.00071181358 
     300     6575      73234.275           0.15     0.16322665   0.0056575132    0.013195767              0           0.04              0 -4.9213464e-13  0.00017916297  4.0557013e-05   0.0010581204 
     400     6575      127736.76           0.15     0.16322665   0.0056575132    0.013553881              0           0.04              0 -4.9526353e-13  0.00017916297   4.288139e-05   0.0013981364 
     500     6575      195846.57           0.15     0.16322665   0.0056575132    0.013858291              0           0.04              0 -4.9792022e-13  0.00017916297  4.4757637e-05   0.0017319726 
     600     6575      276765.84           0.15     0.16322665   0.0056575132    0.014117153              0           0.04              0 -5.0018209e-13  0.00017916297  4.6336297e-05   0.0020597376 
     700     6575      369739.28           0.15     0.16322665   0.0056575132    0.014337333              0           0.04              0 -5.0211041e-13  0.00017916297  4.7701325e-05   0.0023815378 
WARNING: Forced restart written (/Users/howardtu/Documents/modeling/localPackage/LIGGGHTS-PUBLIC/src/output.cpp:427)
     785     6575      457704.68           0.15     0.16322665   0.0056575132    0.014498433              0           0.04              0  -5.035249e-13  0.00017916297  4.8732991e-05   0.0026504561 
Loop time of 4.98465 on 1 procs for 1000 steps with 6575 atoms, finish time Tue Sep 16 14:21:11 2025


Pair  time (%) = 2.83855 (56.9457)
Neigh time (%) = 0.063047 (1.26482)
Comm  time (%) = 0.000141 (0.00282868)
Outpt time (%) = 0.003078 (0.0617495)
Other time (%) = 2.07984 (41.7249)

Nlocal:    6575 ave 6575 max 6575 min
Histogram: 1 0 0 0 0 0 0 0 0 0
Nghost:    0 ave 0 max 0 min
Histogram: 1 0 0 0 0 0 0 0 0 0
Neighs:    28514 ave 28514 max 28514 min
Histogram: 1 0 0 0 0 0 0 0 0 0
FullNghs: 77062 ave 77062 max 77062 min
Histogram: 1 0 0 0 0 0 0 0 0 0

Total # of neighbors = 77062
Ave neighs/atom = 11.7205
Neighbor list builds = 2
Dangerous builds = 0
