ITEM: TIMESTEP
2050000
ITEM: NUMBER OF ATOMS
6057
ITEM: BOX BOUNDS fm fm fm
0.0000000000000000e+00 7.5000000000000000e-01
0.0000000000000000e+00 7.5000000000000000e-01
0.0000000000000000e+00 2.0312500000000000e+00
ITEM: ATOMS id type x y z radius
    718     1    0.019897586680    0.018550716975    0.019268039214    0.020000000000
    254     1    0.098640197778    0.019908447640    0.018455942956    0.020000000000
   1324     1    0.196348407451    0.019120002201    0.018379075155    0.020000000000
   3416     2    0.301447747552    0.025541355680    0.024387155917    0.025000000000
   1659     1    0.345720448499    0.018994959034    0.018505772211    0.020000000000
   2765     2    0.389398595132    0.024677614512    0.023404671286    0.025000000000
   1061     1    0.454889763443    0.018672013234    0.019567936093    0.020000000000
   2370     1    0.576492761071    0.019763269019    0.018629406284    0.020000000000
   2471     2    0.628752928462    0.023598496868    0.024198834215    0.025000000000
   4656     2    0.691638786547    0.024406663085    0.024106678671    0.025000000000
   3312     2    0.153023716910    0.028388963570    0.023251637574    0.025000000000
   4321     2    0.240223913065    0.032337866866    0.023489691786    0.025000000000
   1059     1    0.065742669935    0.054457981202    0.018555097777    0.020000000000
    784     1    0.116240253107    0.079625385938    0.018621343645    0.020000000000
    250     1    0.156465506702    0.072430948075    0.018917393483    0.020000000000
   1383     1    0.237746282668    0.077319890394    0.019787084730    0.020000000000
    563     1    0.274650868406    0.062241629810    0.018448415741    0.020000000000
   2708     2    0.371331342613    0.070900394585    0.023600770546    0.025000000000
   3398     2    0.450817577301    0.062030581295    0.023222133403    0.025000000000
   4411     2    0.500356186802    0.056738421969    0.023624967316    0.025000000000
   1219     1    0.543587416804    0.065668791867    0.019939855366    0.020000000000
   3395     2    0.596648352689    0.060335281378    0.022723166430    0.025000000000
     44     1    0.644126189480    0.064260314035    0.018849268857    0.020000000000
    994     1    0.682769444813    0.069269733846    0.019612109682    0.020000000000
   5315     2    0.726011407068    0.062181634774    0.024100561200    0.025000000000
   2268     1    0.019359932989    0.100111167935    0.017933905684    0.020000000000
   2813     2    0.064745596880    0.097896158958    0.024838584133    0.025000000000
   1169     1    0.200160830645    0.102742118520    0.018298741648    0.020000000000
    445     1    0.279577257510    0.102740722909    0.021290329576    0.020000000000
   2825     2    0.319198893139    0.083750283239    0.022934349429    0.025000000000
   3191     2    0.413946505881    0.095578949948    0.023512157831    0.025000000000
   4654     2    0.480467711997    0.101849031459    0.023370254316    0.025000000000
   4889     2    0.568765895569    0.101502301513    0.024030644883    0.025000000000
   2582     2    0.118106707814    0.124111557315    0.022658547424    0.025000000000
    398     1    0.160941092986    0.111454164022    0.018993855129    0.020000000000
   4424     2    0.239982257995    0.121364748963    0.023037693367    0.025000000000
    397     1    0.311716973578    0.127884252210    0.019998824897    0.020000000000
    943     1    0.381429579883    0.125824375630    0.019437409377    0.020000000000
   4681     2    0.443139392230    0.134031721815    0.022799350973    0.025000000000
   2168     1    0.538064614331    0.133925356936    0.019182746818    0.020000000000
   3534     2    0.647727163578    0.107560517919    0.022995827511    0.025000000000
   1814     1    0.684650508554    0.131359385135    0.018478182189    0.020000000000
   3277     2    0.726117107911    0.117579861374    0.023445532110    0.025000000000
    911     1    0.037036137667    0.134753009925    0.018336659237    0.020000000000
    183     1    0.183554066896    0.149735175534    0.019164557466    0.020000000000
    939     1    0.499055435126    0.142365044871    0.020054749614    0.020000000000
   3917     2    0.603785498027    0.135207759573    0.023283971457    0.025000000000
   1913     1    0.651888696924    0.152551838851    0.018445942051    0.020000000000
    984     1    0.057078746249    0.169050272656    0.019242542611    0.020000000000
   3565     2    0.097978462074    0.185435735757    0.023375118129    0.025000000000
   3721     2    0.142826948290    0.166298149666    0.024091695597    0.025000000000
   3095     2    0.240082865378    0.171743982938    0.023938662918    0.025000000000
   4276     2    0.295227208195    0.186994234316    0.023241852933    0.025000000000
   3819     2    0.338946626947    0.164076006049    0.022412074604    0.025000000000
   2569     2    0.402985740380    0.164704566738    0.023397892189    0.025000000000
   3529     2    0.468761815197    0.175625680984    0.024066612044    0.025000000000
   4513     2    0.531419672949    0.177831258457    0.022486115677    0.025000000000
   1416     1    0.573535331814    0.166891110490    0.018596297533    0.020000000000
   3362     2    0.689480646514    0.175561111902    0.023314166607    0.025000000000
   2336     1    0.730927531740    0.161820087592    0.020096192524    0.020000000000
   3907     2    0.023649775592    0.197171967783    0.024453527794    0.025000000000
   3718     2    0.183010212393    0.193847223747    0.023666000808    0.025000000000
     16     1    0.336074769606    0.207756010697    0.018812029432    0.020000000000
   1939     1    0.381230886344    0.205997185104    0.019556177807    0.020000000000
   5165     2    0.424923838414    0.209593081920    0.024821197527    0.025000000000
   4926     2    0.593042476778    0.205675383394    0.023510317101    0.025000000000
    200     1    0.651312161842    0.198618523353    0.019197688771    0.020000000000
    384     1    0.728921964902    0.201261894343    0.018967317600    0.020000000000
   4973     2    0.065685979742    0.223178639338    0.024541732586    0.025000000000
   2898     2    0.138196851900    0.215504307909    0.023682780164    0.025000000000
   4758     2    0.222860302200    0.222700384340    0.022642687752    0.025000000000
   5219     2    0.301417447568    0.236390784051    0.024490870621    0.025000000000
   1780     1    0.466720070199    0.219481205452    0.017559638081    0.020000000000
   3872     2    0.547818955537    0.225105967844    0.024504016160    0.025000000000
    357     1    0.626315891290    0.234029430541    0.018906665484    0.020000000000
   5032     2    0.690706570779    0.224360861763    0.022991274695    0.025000000000
   1876     1    0.019434259736    0.256634405313    0.018709307589    0.020000000000
   4177     2    0.105359247417    0.252429804648    0.023353827726    0.025000000000
    476     1    0.259322886868    0.246830208389    0.018359695180    0.020000000000
   1481     1    0.366906434178    0.243127681793    0.018555143263    0.020000000000
   3707     2    0.435119637783    0.263007268618    0.023624923176    0.025000000000
   1875     1    0.506729553401    0.249949281444    0.018114132814    0.020000000000
   3315     2    0.588006363927    0.256384635879    0.024438613324    0.025000000000
   3540     2    0.725680797892    0.259900237140    0.024799290479    0.025000000000
   3779     2    0.060790715913    0.272520565299    0.023799861009    0.025000000000
    366     1    0.205160324234    0.273249341636    0.018999616250    0.020000000000
   4986     2    0.245795983365    0.289036301694    0.022961277690    0.025000000000
   3606     2    0.334785100645    0.272979058591    0.022415176711    0.025000000000
   2248     1    0.388388832142    0.276544256567    0.018762813592    0.020000000000
   5154     2    0.546829654885    0.284876874502    0.022869475951    0.025000000000
   1739     1    0.682859477000    0.268870933040    0.019380728741    0.020000000000
   2051     1    0.018913512713    0.312525071804    0.019200594083    0.020000000000
   1850     1    0.078612166876    0.313654588625    0.019613761495    0.020000000000
   3040     2    0.122631415555    0.306310657536    0.023410386070    0.025000000000
   3258     2    0.172178652908    0.304056328987    0.023781334373    0.025000000000
   3480     2    0.363347103191    0.312689871330    0.022235742716    0.025000000000
   4147     2    0.418219742693    0.309157755189    0.024504651656    0.025000000000
   1812     1    0.513491930898    0.319608784540    0.018235060054    0.020000000000
    787     1    0.580253163954    0.313101841772    0.018889142113    0.020000000000
    371     1    0.623375158627    0.305801545876    0.017692107199    0.020000000000
   4577     2    0.667251509651    0.310365636256    0.023125117967    0.025000000000
   4813     2    0.725523128961    0.314835792870    0.023616455443    0.025000000000
   4542     2    0.215664623246    0.328257380507    0.023532691687    0.025000000000
     93     1    0.286549343844    0.345091722009    0.018761570548    0.020000000000
    716     1    0.324227021243    0.333166629712    0.019762746401    0.020000000000
   5250     2    0.472829988327    0.346526816342    0.022517593391    0.025000000000
    417     1    0.046048155432    0.350246543472    0.017724296086    0.020000000000
    242     1    0.131019683057    0.354648261152    0.017619682218    0.020000000000
   4661     2    0.173920071189    0.353785254361    0.024571551786    0.025000000000
   5334     2    0.250696072002    0.370843217396    0.023680948988    0.025000000000
   4128     2    0.393574368090    0.351338438834    0.023650789498    0.025000000000
   4086     2    0.519774074664    0.363123127335    0.023718767432    0.025000000000
   2236     1    0.563509272978    0.358992947988    0.017981671451    0.020000000000
    630     1    0.614473067434    0.365036722782    0.019197181320    0.020000000000
   2945     2    0.669658632928    0.361985998782    0.023709536201    0.025000000000
   3359     2    0.720507192601    0.364100132143    0.024335487111    0.025000000000
   3554     2    0.067952654834    0.023621744484    0.049837786520    0.025000000000
   2348     1    0.426315739135    0.018831482496    0.046669967671    0.020000000000
   5311     2    0.535454507159    0.024081519090    0.034238304489    0.025000000000
    524     1    0.730735820349    0.020069241246    0.044130522994    0.020000000000
   5385     2    0.338071252450    0.046965186700    0.049463591407    0.025000000000
   2032     1    0.661550685893    0.044684013677    0.048116242192    0.020000000000
   5107     2    0.023950144881    0.058857696219    0.031919639730    0.025000000000
   2839     2    0.197685990798    0.060679283278    0.032011855415    0.025000000000
   2807     2    0.524262935714    0.101824767262    0.045841125883    0.025000000000
   1047     1    0.690841570895    0.100671145920    0.043280475988    0.020000000000
   1625     1    0.203739769684    0.130279480198    0.045652976045    0.020000000000
    987     1    0.346509253175    0.115903627835    0.034561468362    0.020000000000
   2252     1    0.409158532782    0.130157047355    0.050373916363    0.020000000000
   1168     1    0.018797476529    0.156964033842    0.043603244289    0.020000000000
   4161     2    0.064700873618    0.139859317189    0.051326783944    0.025000000000
   3190     2    0.277524450386    0.145858048427    0.042160590715    0.025000000000
    508     1    0.566159345900    0.139241447640    0.046465865058    0.020000000000
   1746     1    0.622572808994    0.174701637282    0.030064569538    0.020000000000
   5416     2    0.263316333968    0.214085110564    0.047778082977    0.025000000000
   1046     1    0.357191445356    0.193463420050    0.049676846134    0.020000000000
   5050     2    0.502485961802    0.211678400038    0.040015733330    0.025000000000
   2158     1    0.339834443236    0.236034564613    0.045121717547    0.020000000000
   2464     2    0.179429097838    0.241888952626    0.033523509080    0.025000000000
    329     1    0.398944412615    0.242480003655    0.039361103383    0.020000000000
   3086     2    0.475307572787    0.251146413985    0.048190094956    0.025000000000
   1405     1    0.145372193581    0.269342832568    0.030042649632    0.020000000000
    199     1    0.501846430340    0.285549940861    0.033127396713    0.020000000000
   2979     2    0.642648473150    0.270685791861    0.037168764671    0.025000000000
   1365     1    0.047871949582    0.319902239732    0.043420749553    0.020000000000
   2745     2    0.293694395500    0.301201788064    0.025334417948    0.025000000000
   4537     2    0.461449965882    0.298230340363    0.045047998259    0.025000000000
   4458     2    0.257529112116    0.329067553600    0.047983934883    0.025000000000
   3366     2    0.547507389712    0.328396338138    0.044864084738    0.025000000000
    849     1    0.589607304497    0.343487719707    0.041416452850    0.020000000000
   3218     2    0.632405490367    0.336905190204    0.047094348329    0.025000000000
   1494     1    0.694586322592    0.334988679976    0.046459211322    0.020000000000
   4145     2    0.087612506571    0.358653217477    0.027416695356    0.025000000000
   2661     2    0.352107617764    0.350702262453    0.049238611748    0.025000000000
   2144     1    0.424980030281    0.366393851277    0.050204614313    0.020000000000
   3013     2    0.023589077367    0.024426263798    0.068873810185    0.025000000000
   4746     2    0.118421930179    0.024527300680    0.056805476247    0.025000000000
   3367     2    0.170136966895    0.023306930307    0.068410110165    0.025000000000
   2378     1    0.211007701318    0.019298261207    0.054288341340    0.020000000000
   1133     1    0.269505719917    0.018515543483    0.053531922956    0.020000000000
   1114     1    0.305711987456    0.018640097964    0.068174755619    0.020000000000
   5284     2    0.384911647847    0.023794581624    0.071210121339    0.025000000000
   4576     2    0.481645013510    0.023989786288    0.055166992934    0.025000000000
   4454     2    0.593653944044    0.024207586461    0.058626700010    0.025000000000
   1505     1    0.636948001448    0.019272269444    0.067233009636    0.020000000000
   4398     2    0.240928918535    0.046769500290    0.070483428810    0.025000000000
   3379     2    0.048216107344    0.074145771966    0.070667044071    0.025000000000
   5098     2    0.092303275506    0.065746626470    0.052435550611    0.025000000000
   3949     2    0.287489466275    0.058114864871    0.059524397676    0.025000000000
    567     1    0.373209684705    0.067041016956    0.067233982434    0.020000000000
   2967     2    0.415197420203    0.059608933122    0.056232442050    0.025000000000
   3021     2    0.476180351833    0.072747422905    0.062873960840    0.025000000000
   1828     1    0.524938922225    0.060218942468    0.059412987337    0.020000000000
   4801     2    0.568328097811    0.068468806474    0.060103005613    0.025000000000
   2055     1    0.624868765449    0.054961392613    0.055857648373    0.020000000000
   4717     2    0.699154502860    0.061758939270    0.064142091921    0.025000000000
   2983     2    0.138345264787    0.083798350456    0.056939428167    0.025000000000
   1841     1    0.179865816519    0.099141254854    0.051165980668    0.020000000000
   2949     2    0.224359906383    0.092117173817    0.059525217519    0.025000000000
   4949     2    0.271537759027    0.103956291947    0.065519653782    0.025000000000
   1517     1    0.332215120775    0.088426922005    0.063527255738    0.020000000000
    229     1    0.380330403145    0.103213039005    0.051605492244    0.020000000000
    154     1    0.444973555212    0.102823986041    0.053933247240    0.020000000000
   3000     2    0.609484798149    0.096749996262    0.052182538613    0.025000000000
   2933     2    0.655722431314    0.085371902529    0.065394068018    0.025000000000
     60     1    0.731015719972    0.091545880435    0.058819713194    0.020000000000
   3003     2    0.023607161568    0.114709999286    0.057660103242    0.025000000000
   1745     1    0.095318699781    0.109096817887    0.055869505561    0.020000000000
   3924     2    0.151038477773    0.131993482032    0.057204217849    0.025000000000
   1174     1    0.315493128022    0.123801542253    0.058965357762    0.020000000000
    842     1    0.730968438985    0.130039641257    0.066704702365    0.020000000000
   1946     1    0.106166887547    0.154016066603    0.052323488883    0.020000000000
    259     1    0.238068870768    0.139844858640    0.062683392674    0.020000000000
   4040     2    0.369109183753    0.147906304380    0.055672108257    0.025000000000
   5209     2    0.476036379603    0.135749437000    0.058548952850    0.025000000000
   3281     2    0.523946176090    0.148947377134    0.059096554484    0.025000000000
   3014     2    0.605083392900    0.156564438985    0.066706009333    0.025000000000
   1516     1    0.641715117024    0.138073334409    0.052328684209    0.020000000000
   5133     2    0.684606188137    0.143887912476    0.059530779387    0.025000000000
    243     1    0.047654785828    0.179859726991    0.056183730053    0.020000000000
   4915     2    0.187013189119    0.162275605285    0.070404374987    0.025000000000
    266     1    0.284194645644    0.183933976946    0.072944532195    0.020000000000
    318     1    0.314367778051    0.163825458563    0.057967747318    0.020000000000
   3257     2    0.435782165772    0.163733865502    0.059143036638    0.025000000000
   2383     1    0.489954423601    0.176936324844    0.062978198206    0.020000000000
   5353     2    0.564887268266    0.181841795509    0.057698741737    0.025000000000
    795     1    0.655258734682    0.177756137859    0.052777811956    0.020000000000
   4607     2    0.725220334559    0.173372445748    0.062137165945    0.025000000000
   1998     1    0.061254393788    0.212811888218    0.070099267962    0.020000000000
    859     1    0.154729267967    0.193042154995    0.057583850708    0.020000000000
    264     1    0.214833459247    0.192002040235    0.053263349068    0.020000000000
   1092     1    0.319788298190    0.203933947070    0.054644041874    0.020000000000
   1214     1    0.395769282698    0.194952752548    0.054126300520    0.020000000000
   5455     2    0.457856963965    0.207127531315    0.061251240656    0.025000000000
    757     1    0.537214352621    0.213699654100    0.067417570828    0.020000000000
     80     1    0.618798279808    0.198398941576    0.060695200383    0.020000000000
     69     1    0.688041268020    0.199479138177    0.059113413191    0.020000000000
   4489     2    0.024404861593    0.234599311117    0.056391601191    0.025000000000
   3119     2    0.103035076782    0.218267980107    0.057651259268    0.025000000000
   4814     2    0.147054481901    0.235531262737    0.068444933400    0.025000000000
   3838     2    0.223755414924    0.237369109616    0.067998002497    0.025000000000
   2273     1    0.297551701198    0.233138389149    0.068499786295    0.020000000000
   1083     1    0.371876983124    0.226872934093    0.063811825702    0.020000000000
   4182     2    0.578620062382    0.228204166506    0.063780251531    0.025000000000
   5408     2    0.652647020517    0.225692977741    0.053326489349    0.025000000000
   4680     2    0.726184322997    0.222144412120    0.057100074307    0.025000000000
   1827     1    0.059639700931    0.260308902569    0.067228796084    0.020000000000
   2725     2    0.264295414380    0.262086071057    0.058286876055    0.025000000000
   3267     2    0.431973370083    0.248520124459    0.069670475144    0.025000000000
   5199     2    0.527308307810    0.256217861746    0.055444357933    0.025000000000
   2846     2    0.691253584071    0.255197769102    0.060374713176    0.025000000000
   4467     2    0.023485165499    0.284329899261    0.052265025732    0.025000000000
   4495     2    0.094823695257    0.285046969867    0.056963451171    0.025000000000
   1287     1    0.169502823432    0.279259506924    0.059932955416    0.020000000000
   3993     2    0.212479709764    0.293292100529    0.057190686330    0.025000000000
   3158     2    0.311146302646    0.274212052648    0.063566292453    0.025000000000
   5364     2    0.359957941781    0.274566772589    0.063491817371    0.025000000000
   1278     1    0.403207480137    0.278436118105    0.054261446674    0.020000000000
   1435     1    0.567655078180    0.270347715472    0.064409724609    0.020000000000
   3462     2    0.602408444532    0.293903956628    0.052780322043    0.025000000000
   4046     2    0.726219152428    0.288848991801    0.064874078061    0.025000000000
    498     1    0.136214865105    0.299391084860    0.065662695004    0.020000000000
   5204     2    0.333644639651    0.315122543758    0.076415365062    0.025000000000
   4235     2    0.383640547955    0.317096313549    0.064763191239    0.025000000000
   3567     2    0.677801866137    0.300830058347    0.069044327829    0.025000000000
   1384     1    0.080968425645    0.328617869930    0.059191830732    0.020000000000
   5319     2    0.122218287667    0.341558952274    0.057002621700    0.025000000000
    406     1    0.163917683250    0.327205314250    0.059886922576    0.020000000000
   1223     1    0.451821446092    0.338842309502    0.058420016183    0.020000000000
   3317     2    0.499078857393    0.327327595958    0.058498771669    0.025000000000
   2852     2    0.726823264061    0.337045333887    0.074617732720    0.025000000000
   5085     2    0.022722163962    0.355136144017    0.052790800655    0.025000000000
   2186     1    0.157253958713    0.367036184720    0.063761392326    0.020000000000
    539     1    0.223123758044    0.357321677355    0.055271330901    0.020000000000
   2343     1    0.260495219213    0.365679337720    0.072684511130    0.020000000000
   3042     2    0.300995618344    0.351200953574    0.059772847948    0.025000000000
    627     1    0.391867607614    0.359620314648    0.067351852783    0.020000000000
   5102     2    0.600387443887    0.372159256632    0.072288221125    0.025000000000
   1321     1    0.666966595903    0.353444404172    0.067189767651    0.020000000000
   1502     1    0.053220703192    0.019639778239    0.102078636050    0.020000000000
   1283     1    0.135755489987    0.018238905881    0.096109818293    0.020000000000
   1975     1    0.214063292363    0.019318477262    0.092984763641    0.020000000000
   3616     2    0.274994382436    0.024770432955    0.100600214506    0.025000000000
   1639     1    0.342425115753    0.018144260544    0.081490782212    0.020000000000
   4816     2    0.522501512367    0.023190303166    0.081932050517    0.025000000000
   4440     2    0.677480177332    0.023185525994    0.083065526144    0.025000000000
   5235     2    0.725863884151    0.025787993679    0.088007171261    0.025000000000
   3666     2    0.092082961564    0.040885399450    0.095292530224    0.025000000000
   2317     1    0.319175400901    0.048954944222    0.088532833950    0.020000000000
    768     1    0.406129758609    0.051111546401    0.098111200309    0.020000000000
   3012     2    0.443304057667    0.029503545204    0.086090738926    0.025000000000
   3743     2    0.566949365825    0.037709289607    0.097422326656    0.025000000000
    477     1    0.644786416623    0.050479554709    0.090044174336    0.020000000000
   4225     2    0.143423781345    0.060698553314    0.099990531192    0.025000000000
   5481     2    0.187434647855    0.067102703228    0.079906053422    0.025000000000
   2205     1    0.441027998929    0.073956304735    0.089509781018    0.020000000000
   3977     2    0.504572991066    0.064642625969    0.100880628273    0.025000000000
   3844     2    0.604956627042    0.069505657908    0.092258194172    0.025000000000
   4965     2    0.726444522715    0.078351604424    0.101322777885    0.025000000000
   2962     2    0.104941254769    0.088826226766    0.093372996388    0.025000000000
   1334     1    0.164026585005    0.103059952111    0.087168936084    0.020000000000
   1681     1    0.304005380882    0.085343393023    0.089089759766    0.020000000000
   4575     2    0.402175469707    0.093942541103    0.088589816780    0.025000000000
   1226     1    0.464159052560    0.105609778040    0.088113204778    0.020000000000
   2396     1    0.538876403001    0.087115898680    0.084936181088    0.020000000000
    833     1    0.682142928960    0.082025631886    0.100334846644    0.020000000000
    760     1    0.062497958173    0.113284078634    0.086066516119    0.020000000000
   3807     2    0.130883651155    0.129104634517    0.100971642221    0.025000000000
   2332     1    0.207358020952    0.124884597526    0.083514641450    0.020000000000
   1977     1    0.356346419796    0.113399253699    0.079526756817    0.020000000000
   1937     1    0.431116762781    0.126528164393    0.082556427225    0.020000000000
   4702     2    0.507108986243    0.117027233288    0.090686022292    0.025000000000
   2905     2    0.579201405307    0.117845564320    0.083409685746    0.025000000000
     57     1    0.633193161533    0.118287449672    0.084983804409    0.020000000000
    526     1    0.701453982012    0.108738023438    0.080405903418    0.020000000000
   3795     2    0.023832700777    0.153131156460    0.087299547366    0.025000000000
    975     1    0.091960357752    0.138565922384    0.085071185601    0.020000000000
   3430     2    0.289452007546    0.143514343658    0.089346847450    0.025000000000
   1198     1    0.335926229016    0.147106331938    0.084418123936    0.020000000000
   1425     1    0.394329558352    0.136792013602    0.089831875607    0.020000000000
    438     1    0.460573866104    0.156571444690    0.094590881043    0.020000000000
   5120     2    0.549710660562    0.160718390068    0.097826125307    0.025000000000
    188     1    0.650364065655    0.154916303038    0.085443289902    0.020000000000
    974     1    0.078107809137    0.178188650196    0.081902116042    0.020000000000
   4328     2    0.122148941094    0.180187072493    0.082933129759    0.025000000000
   5279     2    0.241479854558    0.177719500031    0.084446559551    0.025000000000
   4022     2    0.372651089834    0.183509979553    0.089421914719    0.025000000000
   2735     2    0.428155573023    0.186778012677    0.099723749040    0.025000000000
   2125     1    0.694379839805    0.183474409109    0.092978654477    0.020000000000
   4044     2    0.024425944922    0.201427381966    0.092802321557    0.025000000000
   3624     2    0.186821506285    0.209431950381    0.081511392953    0.025000000000
   4618     2    0.324401855615    0.189452328540    0.095112240771    0.025000000000
   2634     2    0.593593943588    0.192307759303    0.097007270040    0.025000000000
   3046     2    0.652153757933    0.198471815056    0.092976306020    0.025000000000
   2039     1    0.730615439097    0.205012484443    0.097101370156    0.020000000000
    174     1    0.049299795419    0.237223399009    0.097181171564    0.020000000000
   4296     2    0.267345198856    0.217217181327    0.095831444695    0.025000000000
   2862     2    0.336427519256    0.239307921575    0.088309917838    0.025000000000
    867     1    0.400399654789    0.217390777297    0.087674392645    0.020000000000
   2469     2    0.500524550072    0.229620290670    0.084279145787    0.025000000000
   2250     1    0.618704056218    0.231981940869    0.080619122427    0.020000000000
   1342     1    0.696732200754    0.222800904721    0.089798919387    0.020000000000
   5232     2    0.115339413050    0.262728136410    0.095175056529    0.025000000000
    807     1    0.185254652867    0.253051982727    0.082940279897    0.020000000000
     11     1    0.391668130725    0.254743238760    0.084527559878    0.020000000000
   5258     2    0.650032366806    0.263012505913    0.085496205876    0.025000000000
     62     1    0.730483316388    0.252043149137    0.088772093358    0.020000000000
   3152     2    0.023194813228    0.271336542338    0.098132236254    0.025000000000
   4511     2    0.186406219503    0.294629446251    0.097274150722    0.025000000000
   4030     2    0.234743018203    0.274778063208    0.096570122938    0.025000000000
   5316     2    0.494321873893    0.283126722736    0.079084100576    0.025000000000
   1020     1    0.019018430215    0.319634579346    0.078641120999    0.020000000000
   3741     2    0.058715027602    0.301331644189    0.085088452121    0.025000000000
   3336     2    0.104991709977    0.314663452231    0.093709610890    0.025000000000
   5198     2    0.284860379296    0.310835756941    0.083050131921    0.025000000000
    747     1    0.367003893934    0.299000132268    0.100156753013    0.020000000000
   3656     2    0.428063900750    0.304543576022    0.079804514918    0.025000000000
    552     1    0.468240637009    0.312261478051    0.099040919292    0.020000000000
   3710     2    0.540129941909    0.298493696668    0.082594915160    0.025000000000
   5109     2    0.616220756913    0.296032806847    0.098521264571    0.025000000000
   1127     1    0.049814346271    0.343969251940    0.083654646037    0.020000000000
   2612     2    0.145730774220    0.342138243995    0.098104548405    0.025000000000
    482     1    0.229226651120    0.324738230945    0.083374754158    0.020000000000
   3166     2    0.579843005983    0.327505901566    0.080812131694    0.025000000000
   2291     1    0.647243484924    0.325976294718    0.086813752187    0.020000000000