ITEM: TIMESTEP
1650000
ITEM: NUMBER OF ATOMS
4043
ITEM: BOX BOUNDS fm fm fm
0.0000000000000000e+00 7.5000000000000000e-01
0.0000000000000000e+00 7.5000000000000000e-01
0.0000000000000000e+00 2.0312500000000000e+00
ITEM: ATOMS id type x y z radius
   2948     2    0.024264213058    0.024787569307    0.023555050082    0.025000000000
    557     2    0.073992755033    0.023420494986    0.023801303263    0.025000000000
   1900     2    0.162233028229    0.023755528748    0.023673932061    0.025000000000
   1608     2    0.211650804186    0.025155787585    0.023650770074    0.025000000000
   3189     2    0.268096879905    0.023610826999    0.023335631863    0.025000000000
   1632     2    0.372575699319    0.024220145200    0.023380178057    0.025000000000
    903     2    0.431343316147    0.024635306564    0.023594516519    0.025000000000
   1161     2    0.488992283038    0.023445634502    0.024300666976    0.025000000000
   2808     2    0.549109782266    0.024211277614    0.023754252593    0.025000000000
    379     1    0.622998156343    0.019488583074    0.019296665737    0.020000000000
   2662     2    0.676288168856    0.025335761568    0.025849532766    0.025000000000
   2068     2    0.725678455111    0.023606761449    0.023843333217    0.025000000000
   2216     2    0.591123576905    0.049601879277    0.024184569892    0.025000000000
   3225     2    0.024472783423    0.074580235555    0.023669214093    0.025000000000
    421     2    0.073527750524    0.071863371013    0.023570112793    0.025000000000
   2381     2    0.122653792628    0.073505278103    0.023265644864    0.025000000000
    185     1    0.197600812741    0.069121998786    0.018245215143    0.020000000000
   1143     2    0.242448422906    0.064502133686    0.022767097059    0.025000000000
   2841     2    0.305618444595    0.056630563461    0.022964921182    0.025000000000
    505     2    0.401399481949    0.064308230435    0.023737881952    0.025000000000
   1371     2    0.462147067755    0.063565783876    0.022954748159    0.025000000000
   2802     2    0.639225098450    0.062277946598    0.024900080877    0.025000000000
     88     1    0.682216378883    0.071123363945    0.018816279479    0.020000000000
    806     2    0.725902095322    0.072313796232    0.024224316473    0.025000000000
   3274     2    0.291571188772    0.103434002891    0.023067308166    0.025000000000
   1877     2    0.340239059606    0.093061636791    0.023250647193    0.025000000000
   1043     2    0.495907617797    0.100677050541    0.024084266518    0.025000000000
   1684     2    0.549978060478    0.086213028692    0.023008945006    0.025000000000
   1811     2    0.608882059950    0.106113734055    0.024202941827    0.025000000000
   1498     2    0.170976651361    0.107848821241    0.023691392798    0.025000000000
    759     2    0.219510391392    0.108444893381    0.023881952620    0.025000000000
   3265     2    0.387144116435    0.111855723315    0.023770712464    0.025000000000
   2573     2    0.536367214583    0.132429385812    0.023182806101    0.025000000000
   2548     2    0.658698180868    0.107780720537    0.023890451646    0.025000000000
   1936     2    0.710896748999    0.118264580827    0.023570777203    0.025000000000
   2215     2    0.061699438447    0.142381201660    0.023286295155    0.025000000000
    509     2    0.132372708299    0.139915722019    0.022812872711    0.025000000000
   2779     2    0.297722944784    0.152618154209    0.022470069431    0.025000000000
   1791     2    0.346875123927    0.151377223058    0.024533085931    0.025000000000
   3223     2    0.459683883553    0.135803696929    0.022551389229    0.025000000000
   3315     2    0.582592150692    0.148366293376    0.022724533138    0.025000000000
   1099     2    0.631155693591    0.150291427746    0.023412759430    0.025000000000
   1823     2    0.679241286748    0.155075867145    0.024519888285    0.025000000000
    961     2    0.174398610887    0.175007590329    0.024071473560    0.025000000000
   1676     2    0.258112342204    0.182122509036    0.024650934892    0.025000000000
   2023     2    0.403466819011    0.170207668661    0.022623800238    0.025000000000
   3453     2    0.450419651524    0.184125751309    0.023552156283    0.025000000000
    244     1    0.493762544443    0.162745054801    0.018733808577    0.020000000000
   1602     2    0.533043816284    0.181469773480    0.023801002682    0.025000000000
    704     2    0.726306357781    0.165948538211    0.023428464000    0.025000000000
   1984     2    0.023521631237    0.211404063620    0.023186213716    0.025000000000
   2856     2    0.070335739832    0.197998371251    0.024303334933    0.025000000000
   1467     2    0.213584178605    0.204902634062    0.023852866489    0.025000000000
   1292     2    0.314210224770    0.198756784390    0.022848391920    0.025000000000
    520     2    0.363437658007    0.197797064204    0.023515838550    0.025000000000
   2634     2    0.577901233942    0.202233454552    0.023091400856    0.025000000000
   1948     2    0.628810881572    0.199438307038    0.022933595752    0.025000000000
   1139     2    0.678050933161    0.208125306592    0.023021831035    0.025000000000
    764     2    0.114743231119    0.220993214837    0.023310519210    0.025000000000
   2104     2    0.165724155562    0.227770810661    0.022296564116    0.025000000000
   3059     2    0.266733339817    0.230994160921    0.024378732046    0.025000000000
   1240     2    0.407605994279    0.219403579654    0.023428244192    0.025000000000
   1971     2    0.476914006540    0.226076894175    0.024321655027    0.025000000000
   2129     2    0.526281494311    0.230279378738    0.024073113151    0.025000000000
   2726     2    0.726286488557    0.215473539044    0.023869988662    0.025000000000
   1814     2    0.024129147600    0.260929482373    0.024122776026    0.025000000000
   2089     2    0.072201302387    0.246601005884    0.022704417482    0.025000000000
   2393     2    0.209792139261    0.254222536211    0.024096418113    0.025000000000
   2929     2    0.320473520578    0.247509249510    0.023132034421    0.025000000000
   2919     2    0.438933030607    0.257073058063    0.023339348532    0.025000000000
     31     1    0.498097943035    0.263948156857    0.018662344000    0.020000000000
   1294     2    0.608305591428    0.243804443349    0.023805424325    0.025000000000
   2918     2    0.659343749148    0.254427760881    0.023600146349    0.025000000000
   2330     2    0.060570673672    0.293707457202    0.023470955450    0.025000000000
   2607     2    0.127305243160    0.269112419335    0.023584507000    0.025000000000
    312     1    0.170155291388    0.271105341753    0.018398907845    0.020000000000
    647     2    0.290909456163    0.294062328578    0.022342069133    0.025000000000
   1941     2    0.383317663422    0.289364132211    0.022338623957    0.025000000000
     83     1    0.560393927350    0.274817480008    0.017910637846    0.020000000000
   3143     2    0.626114124763    0.291331824366    0.023497783250    0.025000000000
   1049     2    0.725909965807    0.279800425123    0.023604298679    0.025000000000
    159     1    0.018815550213    0.304372382299    0.019350726307    0.020000000000
   2790     2    0.104739665136    0.313743328555    0.023546435289    0.025000000000
    826     2    0.153723147411    0.311950574062    0.023101485471    0.025000000000
   1141     2    0.201338634295    0.303097992807    0.023732410691    0.025000000000
    372     1    0.240482153894    0.321274055066    0.017902913705    0.020000000000
   3157     2    0.336394733893    0.314883019233    0.023155988369    0.025000000000
    234     1    0.426562369524    0.298287558656    0.019151103772    0.020000000000
   1472     2    0.467862557039    0.313182528724    0.024030085928    0.025000000000
   1693     2    0.515854392827    0.304341111741    0.022311039678    0.025000000000
   3289     2    0.672832254417    0.308876472467    0.023860341396    0.025000000000
    536     2    0.063087951100    0.342411131221    0.023484487768    0.025000000000
    750     2    0.406775179735    0.337122515521    0.023863556383    0.025000000000
   2561     2    0.591534589717    0.326681137526    0.023681312248    0.025000000000
   1779     2    0.725924348079    0.329822176251    0.023133135646    0.025000000000
   2843     2    0.024074794408    0.373066898730    0.023943963033    0.025000000000
    530     2    0.138378062084    0.358082102157    0.023390421039    0.025000000000
     35     1    0.183574799889    0.353674129649    0.022932174589    0.020000000000
   2407     2    0.247565301142    0.367071557625    0.022505778999    0.025000000000
   2729     2    0.304796690659    0.352385910270    0.023272442420    0.025000000000
   3276     2    0.362755010358    0.358739853032    0.024130161640    0.025000000000
   1719     2    0.491088383849    0.374379642653    0.023071166383    0.025000000000
   2594     2    0.552738456563    0.356084399900    0.024080087661    0.025000000000
   2692     2    0.685038585050    0.356660586047    0.024108842060    0.025000000000
   2823     2    0.118361674968    0.024935562661    0.045776745658    0.025000000000
   3042     2    0.330644165638    0.024006910465    0.049033325064    0.025000000000
   3066     2    0.164540571397    0.065444085393    0.046983079212    0.025000000000
   1755     2    0.514735408558    0.059349335862    0.044909816568    0.025000000000
    136     1    0.136757065798    0.105097473607    0.050774576167    0.020000000000
   1922     2    0.432763495006    0.099017428405    0.038872294009    0.025000000000
   2175     2    0.024867873940    0.117382647717    0.047444346045    0.025000000000
   1197     2    0.094841188099    0.111540328276    0.040883126175    0.025000000000
   2013     2    0.258006997275    0.131739067245    0.042705868355    0.025000000000
    329     1    0.320983863916    0.124484285581    0.047752395280    0.020000000000
   1214     2    0.217198490005    0.159194649367    0.040861791770    0.025000000000
    315     1    0.381700619868    0.145651546714    0.050815883483    0.020000000000
    736     2    0.023458435480    0.166152050787    0.042508748172    0.025000000000
     42     1    0.098449808728    0.165376497458    0.033186091617    0.020000000000
    297     1    0.133192731405    0.182704114014    0.035024152525    0.020000000000
    399     2    0.367382098203    0.245158605407    0.033902149110    0.025000000000
    305     1    0.566627968943    0.241709603739    0.039302496848    0.020000000000
    284     1    0.700506028950    0.247107317126    0.037467559463    0.020000000000
   1370     2    0.251193294174    0.273453646087    0.043682213764    0.025000000000
   2999     2    0.553350568557    0.314091080652    0.050531797639    0.025000000000
   3282     2    0.218277409007    0.341196146606    0.050169541312    0.025000000000
    243     1    0.270059100988    0.332939372850    0.038538928941    0.020000000000
   2878     2    0.637367001266    0.344998823962    0.024840450392    0.025000000000
   3263     2    0.449545539109    0.354616731739    0.040827466417    0.025000000000
    749     2    0.048555631421    0.023921002578    0.065437327492    0.025000000000
   2562     2    0.184769536302    0.024306518046    0.066730940722    0.025000000000
   2172     2    0.239974654050    0.024160119115    0.063359019423    0.025000000000
   2982     2    0.401989702383    0.024327893227    0.062218786572    0.025000000000
   2858     2    0.458957454513    0.023389210027    0.064993564396    0.025000000000
   2871     2    0.537246068543    0.023847120429    0.070524592372    0.025000000000
    643     2    0.591256938407    0.024141262952    0.066127370573    0.025000000000
   2146     2    0.639541288908    0.026489195109    0.059469133379    0.025000000000
   3296     2    0.286226185036    0.041830473768    0.064727402606    0.025000000000
   1603     2    0.724942542295    0.040108875496    0.069347788589    0.025000000000
   2973     2    0.023961639528    0.065960805594    0.071367409333    0.025000000000
   1593     2    0.072136964000    0.075089613369    0.071949755863    0.025000000000
   1384     2    0.122112988350    0.067739913682    0.070804807788    0.025000000000
   2144     2    0.211003913056    0.073751636877    0.058955335524    0.025000000000
    691     2    0.362165952379    0.061082241377    0.053099533322    0.025000000000
     33     1    0.432398709208    0.056990524867    0.054535525608    0.020000000000
   3372     2    0.474927587658    0.079376090525    0.065583507477    0.025000000000
   1581     2    0.564139526659    0.064482953749    0.062801207782    0.025000000000
     22     1    0.608636149083    0.075231394857    0.055726483364    0.020000000000
   1296     2    0.673010198296    0.066085693125    0.060957798460    0.025000000000
   1135     2    0.263970267124    0.085978553173    0.059512958644    0.025000000000
   2446     2    0.312867226665    0.083766891491    0.062089119768    0.025000000000
    478     2    0.401098929214    0.082954944284    0.072111846901    0.025000000000
    873     2    0.526091546506    0.103477356516    0.063025044836    0.025000000000
   2623     2    0.726182825381    0.089494096818    0.069498350378    0.025000000000
   2190     2    0.207283987480    0.120872565362    0.069618215404    0.025000000000
   1534     2    0.359625157411    0.109356986177    0.064229056586    0.025000000000
    393     1    0.478252651077    0.121857346334    0.058692612260    0.020000000000
   1392     2    0.574224658676    0.112187980007    0.057551345232    0.025000000000
   3234     2    0.636294092213    0.107659617217    0.068220574517    0.025000000000
   2278     2    0.684831809508    0.114223942046    0.064280211101    0.025000000000
   3076     2    0.116503426740    0.145423165218    0.068308062868    0.025000000000
    900     2    0.164472941686    0.141079211759    0.058834340005    0.025000000000
   1759     2    0.288643218083    0.158229677009    0.068692828321    0.025000000000
   2660     2    0.430491915679    0.150120292421    0.056925145251    0.025000000000
   1807     2    0.509911607276    0.151581444319    0.057898667144    0.025000000000
   1276     2    0.558216930772    0.158803616259    0.061778485069    0.025000000000
   1175     2    0.607985575257    0.147234871459    0.064432208358    0.025000000000
   2365     2    0.726161004530    0.139791519942    0.064855918107    0.025000000000
    952     2    0.066923083922    0.169198408908    0.063971091830    0.025000000000
   3268     2    0.657622249761    0.182876438102    0.058834589758    0.025000000000
    291     1    0.039797616340    0.202765664698    0.061725985982    0.020000000000
   1771     2    0.106244438598    0.198964377346    0.065331634225    0.025000000000
     14     1    0.219675351072    0.190489371428    0.072085179946    0.020000000000
   3115     2    0.337924062534    0.193302584427    0.063946930578    0.025000000000
    641     2    0.431011387732    0.203887093730    0.063630656845    0.025000000000
   2005     2    0.482497944120    0.192520573150    0.059211334773    0.025000000000
   3397     2    0.546649364100    0.206456321253    0.062994456590    0.025000000000
    902     2    0.593210371287    0.193029125781    0.067486578334    0.025000000000
   2227     2    0.710643443715    0.189536604892    0.062597005005    0.025000000000
   1778     2    0.070340363304    0.232704741773    0.067845751848    0.025000000000
   1737     2    0.139720884741    0.235433416335    0.062420160343    0.025000000000
   1315     2    0.185141201386    0.215092327718    0.062932166474    0.025000000000
   3252     2    0.232299631355    0.231160637594    0.060050738232    0.025000000000
   2298     2    0.299179570627    0.223239563754    0.061279249264    0.025000000000
   2601     2    0.385265775105    0.218600082694    0.070038756257    0.025000000000
    762     2    0.504529577204    0.235528592134    0.068665651059    0.025000000000
     75     1    0.595616773593    0.237710357628    0.065474369365    0.020000000000
     25     1    0.628905906969    0.216671896625    0.062072557156    0.020000000000
    877     2    0.670474541994    0.230657315833    0.065073916161    0.025000000000
    547     2    0.023375427219    0.247146443919    0.071742764818    0.025000000000
   2341     2    0.342270790762    0.240981420019    0.076033052140    0.025000000000
   3037     2    0.405401032224    0.264755456852    0.059020575048    0.025000000000
   2511     2    0.457138251483    0.245447087250    0.065256870247    0.025000000000
   3316     2    0.632389294294    0.262668184962    0.062856665787    0.025000000000
   1694     2    0.725698898052    0.257410391013    0.073429400001    0.025000000000
    252     1    0.030977343839    0.289909307847    0.056513139719    0.020000000000
   1600     2    0.091646466513    0.275435055007    0.055275987764    0.025000000000
   1499     2    0.174099924863    0.270819001966    0.061274339975    0.025000000000
   3301     2    0.305821305216    0.270892449964    0.061849456485    0.025000000000
   2417     2    0.351891673266    0.284671371310    0.057117748770    0.025000000000
   1431     2    0.488049147721    0.283002365971    0.056666473713    0.025000000000
   2516     2    0.534780697595    0.269433475754    0.052602812641    0.025000000000
   1827     2    0.587564574783    0.278778059777    0.051616619386    0.025000000000
   3060     2    0.683941373961    0.279681555440    0.061005622955    0.025000000000
   2362     2    0.066740090130    0.317443087275    0.065591531515    0.025000000000
   3297     2    0.132428071219    0.297446406136    0.063613231262    0.025000000000
    247     1    0.179721260381    0.321394868480    0.057648727655    0.020000000000
   1133     2    0.215502390983    0.295323601227    0.069800926225    0.025000000000
    941     2    0.304765102627    0.319624033769    0.060281302301    0.025000000000
    848     2    0.391125323732    0.312195513618    0.063223002798    0.025000000000
    340     1    0.435045644992    0.307713592501    0.056094969646    0.020000000000
   1131     2    0.633160100237    0.312436375152    0.066813182112    0.025000000000
   2265     2    0.726655038625    0.306026373247    0.065056235301    0.025000000000
    586     2    0.023441537017    0.333893900841    0.052877347406    0.025000000000
   1798     2    0.104493957865    0.347530658513    0.058094757109    0.025000000000
   2861     2    0.349665010128    0.337633225072    0.066782984717    0.025000000000
    104     1    0.462525589486    0.327626056414    0.074883066886    0.020000000000
   3439     2    0.511861770777    0.342078872669    0.051659146404    0.025000000000
   2865     2    0.683503669768    0.330843177014    0.066170592584    0.025000000000
   1417     2    0.150045172066    0.350310074989    0.075042680088    0.025000000000
   2372     2    0.294076740614    0.366817107239    0.069044199203    0.025000000000
    572     2    0.409548886218    0.357057258916    0.068390968733    0.025000000000
   1787     2    0.604709078795    0.354765093515    0.065000635322    0.025000000000
   1461     2    0.726655002676    0.356739120897    0.063644927182    0.025000000000
    222     1    0.018939530234    0.019843176667    0.098428444400    0.020000000000
    201     1    0.090624898199    0.019812978580    0.079450527121    0.020000000000
   1893     2    0.132578968419    0.024506903309    0.093055929552    0.025000000000
   1625     2    0.317968543680    0.023156127681    0.096655804175    0.025000000000
   2884     2    0.368011457797    0.023821401224    0.097228522420    0.025000000000
   3332     2    0.681153776155    0.023948533819    0.084717422616    0.025000000000
   3159     2    0.214453611709    0.046592958704    0.098184478207    0.025000000000
    810     2    0.496326217680    0.042141160414    0.088316041627    0.025000000000
    122     1    0.163863131972    0.055457586739    0.089769495651    0.020000000000
   2312     2    0.340819230063    0.064901639685    0.095551552767    0.025000000000
   2112     2    0.633862494367    0.065059991455    0.090419007250    0.025000000000
   2959     2    0.108842283671    0.106261828965    0.097856183327    0.025000000000
   1714     2    0.165727692080    0.098435967660    0.082673810138    0.025000000000
   2494     2    0.235629876912    0.093507534524    0.097299132029    0.025000000000
    388     1    0.596180074834    0.090070439564    0.089797682152    0.020000000000
   2530     2    0.023725792600    0.109011817693    0.095491469137    0.025000000000
   1563     2    0.066991244864    0.123234246813    0.079520510660    0.025000000000
     18     1    0.289383160548    0.115628527750    0.081223608070    0.020000000000
   3074     2    0.398790081826    0.128720846514    0.086298479814    0.025000000000
   2209     2    0.444758523274    0.112388111124    0.084903216636    0.025000000000
   1037     2    0.492947162914    0.110760020959    0.098591564903    0.025000000000
    875     2    0.583425701111    0.130521456118    0.102128060720    0.025000000000
   1129     2    0.024167367799    0.158289098245    0.090964593731    0.025000000000
   1411     2    0.241580633396    0.153616477777    0.082611796532    0.025000000000
   1767     2    0.334923883070    0.147999514991    0.082213092487    0.025000000000
    490     2    0.469802144945    0.154746574493    0.086894150595    0.025000000000
   2783     2    0.534999085774    0.137042381748    0.098112837784    0.025000000000
    152     1    0.627325140967    0.137823803689    0.101190084324    0.020000000000
   3258     2    0.670146097609    0.150285645583    0.092400563944    0.025000000000
    713     2    0.150776667595    0.183754742412    0.078373499893    0.025000000000
   1726     2    0.192764711790    0.162234643081    0.091712050465    0.025000000000
    531     2    0.309444089021    0.186592741692    0.101518437009    0.025000000000
   2475     2    0.376858652113    0.172918591951    0.084538128711    0.025000000000
   3209     2    0.423051796381    0.170646282199    0.099220326952    0.025000000000
   1950     2    0.515618873581    0.183027215407    0.093097929056    0.025000000000
     96     1    0.074589135071    0.199724585111    0.094721738893    0.020000000000
    729     2    0.262377601732    0.197855243198    0.078618230859    0.025000000000
   1559     2    0.461593414690    0.211509470173    0.100748332908    0.025000000000
    237     1    0.629146797534    0.188009341966    0.091287007202    0.020000000000
   1125     2    0.680979845779    0.197866483940    0.099436854837    0.025000000000
   2331     2    0.421248897315    0.239008591663    0.097118295356    0.025000000000
   1118     2    0.637340825014    0.233621498098    0.100614116498    0.025000000000
   1046     2    0.106567170309    0.250301740546    0.094566788271    0.025000000000
    661     2    0.202125807103    0.248856334871    0.093991522632    0.025000000000
   2168     2    0.267939290239    0.252026103296    0.085460618383    0.025000000000
   2991     2    0.548404205393    0.244748127734    0.092421801046    0.025000000000
   1981     2    0.058947371095    0.275691966737    0.088539467767    0.025000000000
     93     1    0.246399914328    0.286619484432    0.099480676132    0.020000000000
   1001     2    0.289123685621    0.294134823634    0.098977786893    0.025000000000
   2898     2    0.454120501864    0.287041921660    0.090442500961    0.025000000000
    446     2    0.544197644949    0.293482635234    0.094657238473    0.025000000000
   2800     2    0.603107393366    0.270746730552    0.101384696418    0.025000000000
   2993     2    0.655560229383    0.283285539633    0.099904769622    0.025000000000
   1705     2    0.023351035727    0.308360107406    0.095818506695    0.025000000000
   2552     2    0.166414497757    0.304866386819    0.095841654259    0.025000000000
   2157     2    0.420107558806    0.320823116846    0.099178672893    0.025000000000
   2369     2    0.502537614511    0.318932804382    0.092484658295    0.025000000000
   1894     2    0.587059234260    0.314290674444    0.084559004186    0.025000000000
   1859     2    0.195540603510    0.343402198211    0.092518233855    0.025000000000
   2335     2    0.255730368820    0.322928234832    0.077656153387    0.025000000000
    265     1    0.318857184965    0.330079783044    0.098865865915    0.020000000000
   2714     2    0.545883142620    0.345943618673    0.085457445420    0.025000000000
   2203     2    0.048663975582    0.349534016573    0.097464578545    0.025000000000
    193     1    0.236353883388    0.360097294048    0.087291870707    0.020000000000
   3368     2    0.332488918389    0.372559265403    0.097621275870    0.025000000000
   1855     2    0.480630131260    0.367644425906    0.078676853579    0.025000000000
   2925     2    0.647004856444    0.353003275366    0.089721603870    0.025000000000
   2822     2    0.060828009279    0.023582779787    0.112208465414    0.025000000000
   2445     2    0.175320069763    0.023939717006    0.118589303070    0.025000000000
   3388     2    0.266608444222    0.023155222308    0.104105388380    0.025000000000
   1752     2    0.427916093785    0.023030304904    0.102894090776    0.025000000000
   1682     2    0.524008974917    0.023924590369    0.124597860623    0.025000000000
   2108     2    0.615812202882    0.023960452121    0.109024740197    0.025000000000
    594     2    0.725379056167    0.024152504051    0.115706684098    0.025000000000
   2938     2    0.469442034159    0.029115727673    0.127054826239    0.025000000000
   2132     2    0.565703863973    0.041463118447    0.105169583349    0.025000000000
   2672     2    0.024226639573    0.066597696712    0.119625618464    0.025000000000
   2996     2    0.097026530688    0.056038096727    0.108931475250    0.025000000000
    300     1    0.138645775001    0.076970067472    0.110442910459    0.020000000000
    589     2    0.183805333860    0.071926958637    0.126087319492    0.025000000000
    753     2    0.285373434298    0.076741066849    0.101920027273    0.025000000000
   1907     2    0.397743688411    0.058831604015    0.113906536731    0.025000000000
   3246     2    0.447502452664    0.067094079635    0.102952895317    0.025000000000
    925     2    0.513279257944    0.072116033353    0.121886271089    0.025000000000
    166     1    0.600058642366    0.064103519966    0.119677264647    0.020000000000
   1243     2    0.699126801718    0.065464448003    0.102558435704    0.025000000000
   2842     2    0.065776501954    0.093184406032    0.118744526748    0.025000000000
   3015     2    0.370626148296    0.099190434913    0.110738998518    0.025000000000
   2008     2    0.417795408094    0.103531565656    0.124510155209    0.025000000000
   1345     2    0.553707475386    0.091330919844    0.102628497486    0.025000000000
   2378     2    0.623367990379    0.100698500673    0.123942765541    0.025000000000
   1833     2    0.668803682181    0.102815000994    0.108658654180    0.025000000000
   1686     2    0.191861741850    0.119869418780    0.116912606112    0.025000000000
    289     1    0.235266628951    0.130558987917    0.120251662127    0.020000000000
   3212     2    0.725717358726    0.118483482940    0.108854038920    0.025000000000
   2395     2    0.056057444329    0.141000720217    0.123913713649    0.025000000000
    441     2    0.147363610564    0.137863532946    0.105277897685    0.025000000000
   1389     2    0.277230387819    0.143485534362    0.113540627426    0.025000000000
    440     2    0.097218635989    0.164953990125    0.107182702088    0.025000000000
    611     2    0.249955846871    0.181858731896    0.122611215740    0.025000000000
   2241     2    0.350491157644    0.179875890608    0.125181458783    0.025000000000
    311     1    0.482261641491    0.180032550545    0.119844116456    0.020000000000
   2377     2    0.562671007650    0.182498354681    0.103607657048    0.025000000000
   3361     2    0.604938769989    0.169463299145    0.122348589489    0.025000000000
    734     2    0.725611770930    0.167124366606    0.104315267741    0.025000000000
    732     2    0.024464693684    0.206298699654    0.101262189370    0.025000000000
   2595     2    0.121922506745    0.206435431192    0.111192941548    0.025000000000
   1437     2    0.184308209441    0.206738232906    0.110244826644    0.025000000000
      2     1    0.228190108025    0.214309012415    0.102235216271    0.020000000000
   2763     2    0.391332810231    0.205899433343    0.117070351869    0.025000000000
   1028     2    0.062201795876    0.235667804680    0.116626563050    0.025000000000
    430     2    0.279606436557    0.219572844206    0.118771890044    0.025000000000
     94     1    0.350315966547    0.223529556809    0.115263771867    0.020000000000
   2936     2    0.509418302812    0.224715179120    0.115700859328    0.025000000000
   1346     2    0.590713163961    0.222561185317    0.105529474185    0.025000000000
    758     2    0.725882320835    0.216995765444    0.101952610655    0.025000000000
   1931     2    0.022974033901    0.264259246068    0.118239711314    0.025000000000
   1967     2    0.154578094558    0.250934362856    0.106566874564    0.025000000000
   2966     2    0.239501825505    0.251436155234    0.125322604550    0.025000000000
   1491     2    0.316113466584    0.251824430109    0.116460546134    0.025000000000
   2975     2    0.377212207022    0.258439905166    0.105819503851    0.025000000000
    566     2    0.459810892029    0.253366959106    0.124903900149    0.025000000000