ITEM: TIMESTEP
1155000
ITEM: NUMBER OF ATOMS
8643
ITEM: BOX BOUNDS fm fm fm
0.0000000000000000e+00 8.0000000000000000e+01
0.0000000000000000e+00 8.0000000000000000e+01
0.0000000000000000e+00 8.1509433962264154e+01
ITEM: ATOMS id type x y z radius fx fy fz 
   5182     2    1.097105271179    1.111224192905    1.492712138097    1.111250000000   6.261618520831e-02   2.037993136885e-01  -4.201822746577e-03 
   4558     2    3.389799512072    1.213553312070    1.209022603447    1.218750000000  -5.309162486810e-03  -1.339674961055e-01  -8.629367747926e-02 
   3685     2    1.413767591219    1.421861666835    4.849559032816    1.433750000000   2.363255825403e-01   9.264502493897e-02   3.936408955560e-01 
   4289     2    5.844099951164    1.376220969765    1.777534548363    1.326250000000  -3.005068500570e-01  -1.185108823302e-01  -3.120481041484e-01 
   1752     2    6.822894473559    2.720701091967    4.864599066368    2.186250000000  -3.383154964366e+00  -3.102210457320e+00   1.945014311623e-01 
   2659     2    8.888815416498    1.729804071982    1.708651830676    1.756250000000  -9.260622592228e-01  -2.152000335045e-01   4.206213355064e-01 
   2415     2   11.713026039995    1.814577267277    3.956263102495    1.863750000000  -4.020830210065e-01  -3.891393058002e-01   1.103678431580e+00 
   5275     2   13.133758902389    4.299970395905    1.140416423694    1.111250000000  -1.316365190658e-17   0.000000000000e+00  -1.074893750243e-01 
   3128     2   14.007871857436    1.534753555840    1.510074664696    1.541250000000  -1.271601660534e+00   1.028763525057e+00  -2.522588586435e-01 
   5510     2   15.821918699781    1.003698196060    3.214096323083    1.003750000000  -1.032395112825e+00   1.312622069916e+00   1.410564868615e+00 
   4672     2   16.715690373347    1.328007624715    1.205482653210    1.218750000000   2.876115473919e-02   1.805690872330e+00   6.448382293456e-01 
   2004     2   19.510963364566    1.929256483877    2.539029844623    1.971250000000   4.943456239125e+00   3.955831676023e+00   3.014485350577e-01 
   5832     2   21.326137568499    3.367855830050    4.291560171176    1.003750000000   1.018924886244e+00  -3.205149031710e-01   2.565557213797e-01 
   1438     2   24.372062611267    2.590928324473    2.579702350039    2.616250000000   7.848720876093e+00  -1.063508299354e+00  -4.875723870005e+00 
   5830     2   27.026736219933    1.003760626068    4.460672427332    1.003750000000  -9.701027650031e-18   0.000000000000e+00  -7.921490226231e-02 
   4533     2   28.451038177496    1.496964912978    1.223989214168    1.218750000000  -1.736540648741e-17   0.000000000000e+00  -1.417993049057e-01 
   1873     2   31.863131664149    2.042241985575    2.070012682360    2.078750000000  -1.441099741569e-01  -1.215946270706e+00   1.282701301301e+00 
   1528     2   35.249446836237    2.387358488207    4.926882084730    2.401250000000   4.574377324025e+00  -3.764974274789e+00   7.010559792998e-01 
   5132     2   34.847268330751    2.637981956870    1.111251932065    1.111250000000  -1.316365190658e-17   0.000000000000e+00  -1.074893750243e-01 
   2835     2   37.374861151838    1.648749129791    1.612080112690    1.648750000000   6.858801374910e-01  -1.179009346786e+00  -4.177109585144e-01 
   5056     2   38.764837329064    1.122879039160    3.942792581760    1.111250000000  -1.316365190658e-17   0.000000000000e+00  -1.074893750243e-01 
   4978     2   38.735992562811    4.110170672408    2.170005258923    1.218750000000   5.129394006657e-02  -3.311671284921e-02   6.974236866993e-02 
   1361     2    2.816857200732    4.882980919866    2.799382104239    2.831250000000   5.042345755879e+00   1.292198560375e+00  -1.034064402105e+00 
   4439     2    1.326248808302    8.473628684572    1.326247635411    1.326250000000  -2.852537185376e-01   4.606192375660e-01  -1.253237820807e-01 
   4937     2    6.123321269301    6.628386642931    1.219031124681    1.218750000000  -1.736540648741e-17   0.000000000000e+00  -1.417993049057e-01 
   5635     2    6.318719277753    5.775499517882    4.082964460228    1.003750000000   2.939853479173e-01   1.779792050831e-01  -7.343133757298e-02 
   4715     2    6.070076125864    7.982535604645    4.164959248882    1.218750000000  -5.163719133083e-01  -7.233090578760e-03   4.012333934038e-02 
    392     1    9.751898454522    5.978254959681    2.638987140833    2.726250000000   2.362023616908e+00  -5.053085762192e+00   8.295729418285e+00 
   2092     2   13.288448577301    4.918754760768    5.399936263596    1.971250000000   2.959541978662e-01  -5.624614042526e-01   1.032539180516e-01 
   3958     2   13.477791542792    7.651109710450    1.400842533677    1.433750000000   1.641991823853e-01  -2.249135453021e-01  -3.971489614341e-01 
   5100     2   13.586449163147    7.619209328319    3.943315810650    1.111250000000  -2.266299345818e-01  -1.275726254928e-01   1.645512034524e+00 
    504     1   16.727940906127    5.568878186831    2.513551530737    2.593750000000   9.131083854591e-01   1.347342437948e+01   2.813374961726e+00 
   4180     2   20.501651474565    4.809219316143    1.313856769709    1.326250000000   1.309665924979e+00   1.354927391512e+00  -4.854358772282e-01 
   4342     2   19.474515377629    8.038839639238    1.263137292311    1.326250000000   3.237688790832e-01  -1.050587012433e-01  -3.034089305438e-01 
   4276     2   21.963637992867    7.079919294519    1.295353071176    1.326250000000   1.468627678696e-02  -1.741005848162e-01   6.960911229253e-01 
   5514     2   25.714461826177    5.552277713774    0.992545677097    1.003750000000   2.040505590267e-01   1.011841374129e-01  -1.670946492522e-01 
    471     1   24.996555763935    7.956912680000    3.558529446381    2.593750000000   2.314289690705e+01   1.252771511208e+00   6.358120165216e+00 
    780     1   28.745586201141    5.098117404623    2.282018073087    2.328750000000   1.713755919161e+00  -3.495351351332e+00  -4.214528692886e+00 
    295     1   33.488064963771    7.720297192293    2.764269843064    2.858750000000   1.091247948655e+01   6.639692335157e+00   9.801628414541e+00 
   3570     2   36.263916618580    4.728651991755    1.433749970660    1.433750000000  -9.585365112903e-02   3.634698593788e-02  -3.742943973643e-01 
   3856     2   37.559112918518    8.400679097447    1.441741821944    1.433750000000  -2.827231430639e-17   0.000000000000e+00  -2.308609660032e-01 
   3729     2    1.542919136085    9.406546605771    3.914742741664    1.433750000000   4.898185232322e-02   1.437998464499e-01   9.721353388596e-02 
   2991     2    1.596217425250   12.963173980358    1.613890537123    1.648750000000  -2.800200941274e-01  -9.139229260745e-02  -2.069359738380e-01 
   2323     2    4.418132404054    9.167825110409    1.848070647760    1.863750000000  -3.781647868927e-01  -2.210884928936e-01   1.799427987426e-01 
   5756     2    4.785081287311   11.926208412989    1.020650595073    1.003750000000  -9.701027650031e-18   0.000000000000e+00  -7.921490226231e-02 
   3476     2    7.778008327943    9.593309732710    1.537868297282    1.541250000000  -9.689704646098e-02   8.729444194250e-02   2.504537386849e-01 
   3352     2    8.330978809014    9.470686097167    4.704695150365    1.541250000000  -1.362699949648e+00  -3.483556087594e-01  -7.700488657725e-01 
   4129     2    8.675945764471   11.819161835756    3.095904456534    1.326250000000   2.255719440400e-01  -1.368527762901e+00   2.071752246478e-01 
   5602     2   10.253394525482    9.280269826904    0.969048893346    1.003750000000  -2.083967550425e-02  -3.565523702418e-01  -1.992349406937e-01 
    448     1   12.684882416731   11.509853579580    2.625497656446    2.726250000000  -1.666891199420e+01  -2.318036046275e+01  -4.435974868014e+00 
   4499     2   16.291042163987    9.423927410329    1.371901549604    1.326250000000  -2.237779331363e-17   0.000000000000e+00  -1.827285494006e-01 
   4256     2   14.923433639232    9.263307037310    5.148323789768    1.326250000000  -5.101528221037e-02  -1.778867521081e-02   1.732273757540e-02 
   3306     2   16.486049617235   13.215431526060    1.551758094810    1.541250000000  -3.512047138682e-17   0.000000000000e+00  -2.867804122076e-01 
   5690     2   18.830192496270   11.964238852978    0.938588726127    1.003750000000  -1.195968788234e-01  -3.716671961593e-02   2.088788943365e-02 
    230     1   18.996220756335   10.593153920677    4.614650113403    2.991250000000   5.941114345915e+00  -2.508351728180e+01  -5.831886122551e+00 
   2778     2   23.231091965586   11.394370367958    1.648809718428    1.648750000000  -4.299376647604e-17   0.000000000000e+00  -3.510707455078e-01 
   3594     2   26.566056314373   11.629132689650    3.222912532463    1.433750000000  -3.103656847379e-01  -1.198802609288e-01  -3.552963480162e-01 
   3703     2   29.642656259647    9.171681857476    1.382389206231    1.433750000000  -2.927074703039e-01   6.739160622237e-02  -1.323908853810e-01 
   2534     2   29.239898250219   12.339202985676    1.662575112329    1.756250000000   2.429728713469e-01  -3.570452033309e-01   5.147846750915e-01 
   3554     2   28.869209598670   10.135557486841    3.898010955027    1.433750000000  -3.598563798514e-01  -5.050162975385e-02  -2.858422985956e-01 
   3719     2   32.706349728811   12.209922215507    1.549473078822    1.433750000000  -2.827231430639e-17   0.000000000000e+00  -2.308609660032e-01 
   4628     2   35.873474479864   10.852605870576    1.236191210069    1.218750000000  -1.736540648741e-17   0.000000000000e+00  -1.417993049057e-01 
   2111     2   38.953928446040   13.213571585473    1.870614469893    1.971250000000  -1.090125120245e+00  -6.406846153550e-01  -2.234055865556e-01 
   1778     2    2.163553994294   16.720586883300    2.161753073070    2.186250000000   1.334130573203e+00   9.351704672299e-01  -1.492335005198e+00 
   5353     2    4.734000323307   14.122676125216    1.115462072399    1.111250000000  -1.316365190658e-17   0.000000000000e+00  -1.074893750243e-01 
   2343     2    6.199098636054   16.909741085950    1.863754945051    1.863750000000  -6.210177836543e-17   0.000000000000e+00  -5.070995033725e-01 
   3341     2    8.203326569280   14.175234515235    1.536307041227    1.541250000000  -5.417524412325e+00  -2.468508826531e+00   2.457044633047e-01 
   2830     2   10.219809365309   15.665047329682    3.497922841425    1.648750000000  -1.048698231629e+01   3.769005537721e+00   1.886746325382e-01 
   3529     2   13.406019921391   15.597670033794    3.567964502880    1.541250000000  -2.225825221063e+00  -1.919584229123e+00   4.296500944418e-02 
    177     1   17.403151084255   17.629389734274    2.924769555980    2.991250000000   1.272916035865e+01  -2.780268324353e+01   6.083984613419e+00 
   2580     2   20.769013520510   13.768809296379    1.663204424550    1.756250000000   6.904763348284e-01  -5.556217431731e-01   6.572240963578e-04 
   5706     2   20.769106773032   16.492740202513    1.006757225067    1.003750000000  -9.701027650031e-18   0.000000000000e+00  -7.921490226231e-02 
   3030     2   21.198105337215   15.567241775718    4.405397032766    1.648750000000   4.760507852770e-01  -1.119511652272e+00   8.303309475574e-02 
   1445     2   25.409925232364   15.406235132752    2.484574144430    2.616250000000  -4.228099950298e+00  -3.782264776994e+00  -5.218713302165e-01 
   5173     2   30.189924091551   15.087455944921    1.116782846461    1.111250000000  -1.316365190658e-17   0.000000000000e+00  -1.074893750243e-01 
    755     1   28.918606326172   13.563068080606    5.427337784569    2.328750000000  -1.981732052731e+01  -1.162997268297e+01   8.753643581984e+00 
   3126     2   35.365169356635   13.866880171462    1.659872754642    1.648750000000  -4.299376647604e-17   0.000000000000e+00  -3.510707455078e-01 
   5585     2   32.323643803157   14.786670484216    1.029659352452    1.003750000000  -9.701027650031e-18   0.000000000000e+00  -7.921490226231e-02 
   5748     2   33.397717640599   16.518256090431    1.017933526640    1.003750000000  -9.701027650031e-18   0.000000000000e+00  -7.921490226231e-02 
   1622     2   33.650822294215   14.417381317476    5.278101604323    2.293750000000  -3.347528089769e+00  -1.008443127852e+00  -1.080091013939e+00 
   4162     2   35.797769943876   16.845175802071    1.363407240147    1.326250000000  -2.237779331363e-17   0.000000000000e+00  -1.827285494006e-01 
   1414     2   38.171293720388   16.719696263992    4.595865119143    2.616250000000   2.384205443552e+00  -8.257128886180e-01  -1.395491427403e+00 
   5142     2   39.326826734837   16.483579949387    1.089386189661    1.111250000000  -5.332371700206e-03  -3.879465405771e-02  -6.260935991304e-02 
   3912     2    3.779170045949   17.872881379466    5.126131519679    1.433750000000  -3.672987444734e-01  -9.069851371169e-02   8.049530101550e-02 
   5616     2    1.003811709626   19.577337451975    1.003747151323    1.003750000000  -4.783345476955e-01  -3.228878135361e-01   6.421775009773e-01 
   2905     2    2.250982870194   20.419284261376    3.188120323005    1.648750000000  -4.299376647604e-17   0.000000000000e+00  -3.510707455078e-01 
   4299     2    4.156953599820   21.743422086808    1.326272178506    1.326250000000  -2.237779331363e-17   0.000000000000e+00  -1.827285494006e-01 
   5323     2    5.534209617650   19.741306295896    1.111253433497    1.111250000000  -1.316365190658e-17   0.000000000000e+00  -1.074893750243e-01 
   1029     1    8.573870921257   20.035856417539    1.980886107588    2.063750000000  -3.034834833408e+00  -6.111783712986e+00   8.034024746157e+00 
   2828     2    6.315675589612   19.506994507710    4.801583829098    1.648750000000  -2.485148326959e-01  -1.493690414354e+00   2.453222280476e+00 
   2357     2   12.029391739577   18.191048102302    1.850740349235    1.863750000000   1.612604925860e+00   6.386426417012e-01  -1.189748952165e-01 
   5015     2   13.501652969655   19.750503835024    3.883342893136    1.111250000000   1.309073453740e-01  -1.615035613941e-01  -2.758350199274e-03 
   4334     2   21.328370802996   21.059514379417    1.656231215828    1.326250000000  -2.237779331363e-17   0.000000000000e+00  -1.827285494006e-01 
   4943     2   21.909520834063   18.610132188625    1.221998646179    1.218750000000  -1.736540648741e-17   0.000000000000e+00  -1.417993049057e-01 
   1826     2   24.703142273468   20.348488417644    1.954109487284    2.078750000000  -1.804435025086e+00  -3.327660146402e+00  -3.543100561947e-01 
   5125     2   26.116397803814   22.046721786371    4.255150314480    1.111250000000  -1.441702337117e-01   1.431949366117e-01   2.226838191993e-02 
      9     1   30.354087739226   19.380299987787    3.772110537933    3.918750000000   1.166331643891e+01  -3.420679988631e+01   2.689400496148e+01 
   4652     2   35.467871606140   19.144823216000    3.338059524816    1.218750000000  -1.736540648741e-17   0.000000000000e+00  -1.417993049057e-01 
   3902     2   38.539540322279   21.447129479543    3.728886743304    1.433750000000  -5.724100809311e-01   6.378498813137e-01  -4.780500274866e-01 
   3376     2   37.527037817616   19.532117131451    1.541285586533    1.541250000000  -3.512047138682e-17   0.000000000000e+00  -2.867804122076e-01 
   4576     2   38.900850167754   22.035584109648    1.207345455807    1.218750000000  -1.319348548550e-01   8.997518039250e-01   2.128911088221e-02 
   3917     2    1.435334622203   23.053730940380    1.438439620299    1.433750000000  -2.827231430639e-17   0.000000000000e+00  -2.308609660032e-01 
   3788     2    1.421993180303   25.113442220081    3.465150085624    1.433750000000  -5.509495316073e-02  -1.139477886096e+00  -1.245869574057e+00 
   4088     2    3.654812983210   25.426062978020    1.227817838246    1.326250000000   4.315120091196e-01  -8.582265486475e-01  -4.144439669326e-01 
   5200     2    7.118542360898   25.448326371420    1.131441952539    1.111250000000  -1.316365190658e-17   0.000000000000e+00  -1.074893750243e-01 
    200     1    5.510426492966   24.036554396089    4.725005312429    2.991250000000  -8.612121696933e+00  -2.563067709311e+01  -5.969046397915e+00 
   3106     2    9.231587423697   23.728287835090    1.649610626613    1.648750000000  -4.299376647604e-17   0.000000000000e+00  -3.510707455078e-01 
   3784     2   11.974840900325   25.290813940124    1.491505796118    1.433750000000  -2.827231430639e-17   0.000000000000e+00  -2.308609660032e-01 
    467     1   15.201679111301   22.725810537503    2.522735763397    2.593750000000  -1.267537231650e+01  -2.921309199010e-01   6.652757417411e+00 
   1943     2   13.505588170452   26.218514811861    5.361496446462    2.078750000000  -2.398836208042e+00   3.512211585883e+00   1.103432222807e+00 
   2416     2   18.723659477589   26.041240470743    1.755418670780    1.863750000000  -1.567340085749e+00  -1.418437731569e+00   1.047233030200e+00 
   2281     2   22.885021569647   24.218592321166    1.864065011664    1.863750000000  -6.210177836543e-17   0.000000000000e+00  -5.070995033725e-01 
   3159     2   26.323855553317   23.559110253993    1.541250756222    1.541250000000  -3.512047138682e-17   0.000000000000e+00  -2.867804122076e-01 
   5513     2   23.943593760181   22.694112322254    4.137806457497    1.003750000000  -9.701027650031e-18   0.000000000000e+00  -7.921490226231e-02 
   5219     2   24.058772196448   25.166852333111    4.510755173518    1.111250000000  -1.316365190658e-17   0.000000000000e+00  -1.074893750243e-01 
   4372     2   29.166952368613   23.865673769241    1.326251310849    1.326250000000  -2.237779331363e-17   0.000000000000e+00  -1.827285494006e-01 
   4453     2   30.658066183906   24.686784615340    3.360561165757    1.326250000000  -2.237779331363e-17   0.000000000000e+00  -1.827285494006e-01 
   1603     2   27.439575740058   25.102860446036    4.964531056154    2.293750000000  -2.912817135508e-01  -6.174056788415e-01   1.450306119923e+00 
   3662     2   32.366290707670   23.753974411366    1.400768367384    1.433750000000   1.197233705432e+00  -1.949099249323e-01   4.424722394906e-01 
    942     1   33.859614268483   26.128968470474    3.642353056394    2.196250000000   2.138673115009e+01  -5.391588642495e+00   3.462482587432e+00 
   3285     2   34.317444584201   22.756904895341    5.135080500750    1.541250000000   1.005824329332e-01  -7.093382788007e-01  -3.573538627394e-01 
   1110     1   35.813231431628   22.677364475092    1.968501952363    2.063750000000  -3.299374912633e+00   5.906504726387e+00  -3.596620895900e+00 
   2451     2   37.201462852295   26.331022712964    1.656864404603    1.756250000000   1.208339319797e+00   1.248831269098e+00  -6.913392478600e-01 
   2338     2   37.619367358894   24.648867569837    4.750873564925    1.863750000000  -5.061516875867e-01   3.157273123390e+00  -1.772916213330e+00 
   2937     2    1.637629034598   27.543256349585    1.582455465557    1.648750000000  -9.905154029839e-01  -1.121100259479e+00   8.538905149326e-01 
    319     1    2.874127819075   30.888728626091    4.214029724062    2.858750000000  -2.974253122951e+01  -1.106274970574e+01   1.159193429089e+01 
   5722     2    3.088229167422   27.060183493781    3.749988543419    1.003750000000  -9.701027650031e-18   0.000000000000e+00  -7.921490226231e-02 
   5814     2    1.004006514678   27.414253227175    4.155231617749    1.003750000000  -9.701027650031e-18   0.000000000000e+00  -7.921490226231e-02 
   1277     1    5.776941890866   28.027244740959    1.739968387260    1.798750000000   1.422043056344e+00   6.082895540050e+00   5.775496708229e-01 
   3053     2    6.977112626120   29.148599490568    4.685267524900    1.648750000000  -5.431873308844e-01   1.203760962933e+00  -3.633081902247e-02 
   1965     2    9.682408019779   26.722591859432    3.899049920682    2.078750000000  -2.361254417330e+00   2.537741867476e+00   3.389660670210e-01 
   2442     2   11.626700572613   29.320743546666    1.742035263162    1.863750000000  -6.070847873343e-01   8.783131607343e-01   8.466898929328e-01 
   1208     1   14.889371312794   27.151228193092    1.794830207069    1.931250000000   3.703742519952e+00   5.572945814027e+00   1.074713448063e+00 
   4977     2   14.286446176998   29.944653871708    3.041690051586    1.218750000000  -6.053331342991e-02   4.731129476568e-01   5.287531829312e-02 
   2574     2   17.164776208801   27.790961871377    4.449172192034    1.756250000000  -7.154443202307e-01  -2.453664522618e-01   1.894450205222e+00 
   2705     2   16.802082443442   30.480741716917    1.667025768742    1.756250000000  -5.981833667029e-01  -8.945028798189e-01   3.495170529932e-01 
   3370     2   20.040733370059   30.947239680852    1.451865197545    1.541250000000  -4.244855685392e-01  -3.703859051166e-01   8.278602827340e-01 
    508     1   21.978638263851   28.198225274020    3.694033588452    2.593750000000   1.434502837481e+00  -1.644928018260e+01  -4.810577071123e+00 
   2484     2   25.607709966165   26.771349277652    1.756259218662    1.756250000000  -5.196370149520e-17   0.000000000000e+00  -4.243158233981e-01 
   3880     2   24.063334051553   30.559844114589    1.345616585320    1.433750000000   5.412864615209e-02  -9.138100000564e-01  -1.178300790489e-01 
   2378     2   29.230142280024   27.079626852352    1.775327277631    1.863750000000   9.178606641944e-01  -5.751894314308e-01   4.377579595894e-02 
   3586     2   31.963022189005   28.890816587029    1.422559467670    1.433750000000  -7.945546931442e-01  -1.429475664994e+00  -5.176283713954e-01 
   1911     2   35.307684814281   29.774193113390    2.028340277645    2.078750000000  -7.871096908202e-01  -6.566492352285e-01  -1.069693139754e+00 
   3179     2   37.313485706924   28.013958928456    4.415936972850    1.541250000000  -1.076667204034e-01   1.196377659304e+00  -7.039419383660e-01 
   2811     2    3.206999472457   35.338637922827    1.648904441033    1.648750000000  -4.299376647604e-17   0.000000000000e+00  -3.510707455078e-01 
   4990     2    1.254516771019   33.180658696363    1.218729995472    1.218750000000  -7.309173594658e-01   1.056113405942e+00   1.461922761849e+01 
   1275     1    1.767526871799   35.288614751755    5.047000964859    1.798750000000   6.762247385923e-01   2.832476311247e+00   1.746221673231e+00 
   4192     2    5.101611186053   32.719013783562    1.269686668437    1.326250000000  -1.419315302162e+00  -6.513755776687e-01   6.447555962950e-02 
   1124     1    8.235077058092   31.258875047016    1.968093204502    2.063750000000   1.866827290505e+00   3.718309878139e+00   2.802851082757e+00 
   4772     2    6.596591914644   32.525437274615    4.514863769434    1.218750000000   6.980396053411e-01  -2.616285430415e+00   1.225164359419e+00 
   2286     2   11.779367269087   34.063538256189    1.746779920244    1.863750000000  -1.703533740059e+00   9.945482290350e-01   3.279167106375e-01 
   5740     2   12.994953947159   35.395508748445    3.947485233149    1.003750000000  -9.963118682208e-02   2.184013494698e-01   4.186612526923e-02 
   4526     2   13.995345192844   31.612932779783    1.245441547628    1.218750000000  -1.736540648741e-17   0.000000000000e+00  -1.417993049057e-01 
   2604     2   15.403966904122   34.261433357137    1.697914026976    1.756250000000  -4.274478252046e-02  -5.860052473727e-01   2.514170766808e-01 
   3540     2   18.590434138522   33.600553121610    1.462803878532    1.541250000000  -6.461679291224e-01  -7.076915860962e-01   7.990602855571e-01 
   1558     2   22.467655305114   33.897864419571    2.317412216159    2.401250000000   2.105177799473e+00   2.413455553120e+00   7.638402162120e-01 
   3626     2   24.388997813606   31.289135211542    4.345820489045    1.433750000000   2.156978387386e+00  -1.603032783489e+00   2.593179969334e-01 
   1674     2   27.082204526511   32.554940430767    2.189277409014    2.293750000000   2.079579656478e+00  -1.954400945688e+00   4.745408138260e-01 
   4923     2   29.920000196149   34.435045544845    1.196320094035    1.218750000000   2.188269373437e-01   3.134844063170e-01  -1.738524034154e-01 
   5282     2   35.148869103682   31.125002149867    5.005723770530    1.111250000000  -1.316365190658e-17   0.000000000000e+00  -1.074893750243e-01 
   1960     2   32.738372504925   32.998185504106    1.975060131673    2.078750000000   2.519440552685e+00  -1.766470611212e+00  -1.018216984347e+00 
   3854     2   33.086124573403   34.720266809525    4.940931113003    1.433750000000   1.655934387119e+00  -9.097995695192e-01   2.406729174141e-03 
   5335     2   35.041200146233   33.263256782815    4.166605701993    1.111250000000  -1.054207900647e-01  -3.093450216951e-01  -2.956138305315e-01 
   5787     2   31.343828501758   35.350881795211    3.396986866572    1.003750000000   4.240525255736e-01  -2.668832056806e-01   6.305134195777e-02 
   3909     2   36.372844218786   33.035832831074    1.411028192223    1.433750000000  -1.148509979721e+00   2.665513071115e-01  -7.675047079101e-02 
   4546     2   36.968538712250   32.007077041641    3.797376805458    1.218750000000  -9.949146571214e-01   2.247486128334e-01   4.592988758276e-02 
   1109     1    2.121231444757   38.882186784516    1.988700069668    2.063750000000   6.725442861789e+00   7.279140233266e+00   2.557229632512e-01 
   4949     2    3.911871262621   37.109370183045    4.044961549457    1.218750000000   7.972532543645e-01   5.286834096769e-01   4.392969570669e-01 
   3984     2    1.407983196580   38.470757979231    5.328597187143    1.433750000000   3.225770082790e-01   3.460194294748e-01  -9.815029625315e-02 
    309     1    7.598128316662   36.060451000273    2.746658406914    2.858750000000   3.774712921912e+01  -1.956522550480e+01   1.241683420725e+01 
   1762     2   11.811893336364   38.347154455881    4.053558491760    2.186250000000   7.121387880761e+00  -7.728997165104e-01   1.575034811480e+00 
   4559     2   13.690838867370   37.435567815427    1.285473290598    1.218750000000  -1.736540648741e-17   0.000000000000e+00  -1.417993049057e-01 
   1248     1   15.618217096401   35.753169146872    4.848451966077    1.798750000000  -6.989896836458e+00  -6.973597757518e+00   4.955552106737e+00 
   3734     2   16.269108887272   38.045018508196    1.433770231258    1.433750000000  -2.827231430639e-17   0.000000000000e+00  -2.308609660032e-01 
   1987     2   15.628310099464   39.479565196769    5.157358324520    1.971250000000   3.785063531715e+00  -4.088854866568e-01  -6.064175655550e-01 
   1843     2   19.013893366897   36.648610106586    3.248385679603    2.078750000000   2.556167209579e+00  -3.679441919317e+00   4.088702913969e+00 
   4263     2   21.954548919494   37.992023397157    1.360441611627    1.326250000000  -2.237779331363e-17   0.000000000000e+00  -1.827285494006e-01 
   3237     2   25.397441755350   36.367013681305    1.502020601457    1.541250000000  -4.107840803917e-01   9.182856935804e-01   4.533559435513e-01 
   1922     2   28.485005761890   36.519363476494    3.260507928914    2.078750000000   1.448108564829e+00  -5.176215008833e-01   2.250594290809e-01 
   1968     2   30.733520540671   39.722637086769    1.973789024029    2.078750000000   2.062692625681e+00   1.418929249048e+00   1.323016490787e-01 
   3438     2   32.402562161142   36.569278734880    1.462308459656    1.541250000000   8.785916657653e-01   3.586250671069e-01   2.040654155426e-01 
     43     1   36.873404037274   37.463052544265    3.484854018204    3.521250000000   3.899193725295e+01   7.844913333771e+00  -3.780501575442e+00 
   4395     2    3.878413549037    1.305299064702    6.086297327539    1.326250000000  -8.923750557587e-01  -2.019712241599e-01   4.081152589060e-02 
   2943     2    1.608897566062    3.674090222723    6.901500604295    1.648750000000   4.808235669043e-01   1.190258719667e+00   3.303716373630e-01 
   4592     2    2.398262417345    1.218748930867    8.154795637556    1.218750000000  -1.097904289786e-01  -1.914515584499e-01  -5.863728290802e-02 
   1801     2    3.315470789259    4.149286177795   10.212329330297    2.186250000000   1.254483454570e+00   3.987932951859e+00   9.002709182951e-01 
   5694     2    4.194132365834    3.890817509089    6.242025818030    1.003750000000  -9.701027650031e-18   0.000000000000e+00  -7.921490226231e-02 
   3845     2    5.605437260171    2.136718997524    8.231883347517    1.433750000000  -2.827231430639e-17   0.000000000000e+00  -2.308609660032e-01 
   5782     2    8.067722176020    3.157001607649    7.805673658981    1.003750000000  -9.701027650031e-18   0.000000000000e+00  -7.921490226231e-02 
   4555     2    4.860055076619    1.181337769847   10.593481049024    1.218750000000  -1.085602892563e-01   3.660126344766e-01   3.367434855318e-02 
   3151     2    9.782080814679    1.541246876469    6.800142870204    1.541250000000   8.894509533883e-01   1.550440401395e+00  -9.264083210049e-02 
   3006     2   10.732148940014    2.489630699523    9.693933853694    1.648750000000  -1.687788348587e-01   1.133539616421e-01   6.861585408284e-02 
   4346     2   10.667483282638    4.226548976638    7.277408287672    1.326250000000   2.129428472286e-02  -6.760801953572e-02  -1.597601335631e-01 
   3356     2   12.796077050448    1.960709825874    7.291734592909    1.541250000000   8.575323697485e-01  -3.326225784042e-01   6.360491709590e-02 
   1809     2   16.331700982422    2.185263332929    6.132769307499    2.186250000000  -2.239806606485e+01  -7.476418267301e+00   1.285160860060e+01 
   3473     2   14.901726701303    1.575813967550    9.531989498081    1.541250000000   3.060994943235e+00   6.000617757076e-01  -4.994710171272e+00 
   2765     2   19.640409191170    1.649240867346    7.993439491879    1.648750000000  -4.647493498374e+00   5.536430436025e+00   6.956259014252e-01 
   3826     2   21.710669593339    1.433191201362    5.721613256921    1.433750000000  -7.249103145532e-01   3.877785736813e-02  -4.681913015211e+00 