ITEM: TIMESTEP
1267000
ITEM: NUMBER OF ATOMS
7024
ITEM: BOX BOUNDS fm fm fm
0.0000000000000000e+00 8.0000000000000000e+01
0.0000000000000000e+00 8.0000000000000000e+01
0.0000000000000000e+00 8.1509433962264154e+01
ITEM: ATOMS id type x y z radius fx fy fz 
   1722     2    2.289237942472    2.247589712986    2.231522371369    2.293750000000  -7.369612006005e-01  -1.698287102336e+00   2.223751065321e-01 
   4181     2    1.003292100851    1.002228173144    5.000693002144    1.003750000000   6.838236911153e-02  -2.489492028217e-01   2.077405534069e-01 
   2193     2    6.411992337555    1.732786792784    1.740849453070    1.756250000000  -1.984689943783e+00  -1.786021027801e+00   1.044913366728e+01 
   4176     2    7.973960949676    3.831953511011    0.991133839235    1.003750000000  -1.257628572057e-01  -1.340387862001e-01   1.074582106667e+00 
   3910     2    9.204347180537    1.344599064501    1.185079646289    1.111250000000  -1.316365190658e-17   0.000000000000e+00  -1.074893750243e-01 
   2516     2   12.390614801921    1.601967380215    1.626558754501    1.648750000000  -2.189073445246e+00   1.589651614428e+00  -1.111862002872e+00 
   2746     2   16.357538142940    1.541259023608    1.541248675269    1.541250000000  -4.064642937338e-01  -1.082051833705e-01  -8.096265774730e-01 
   2793     2   14.595997949319    3.752425461279    2.769872044753    1.541250000000  -3.158575748514e-01  -1.282169873448e+00  -1.077269224128e-01 
   3750     2   14.594538984351    1.118558804732    3.477472220985    1.111250000000  -1.316365190658e-17   0.000000000000e+00  -1.074893750243e-01 
   2661     2   18.190613161190    1.541249658786    4.019478662428    1.541250000000   3.325325062678e-01  -2.750593388865e-01   4.682220302219e-01 
   1065     1   22.709902138818    2.156782978332    2.130853061941    2.196250000000   4.712955815194e+00  -6.694580815383e-01  -6.796347731724e-01 
   2485     2   25.449249194977    1.648752023784    4.780739401586    1.648750000000  -1.870914416538e-01   9.011805242676e-02  -3.276900607285e-01 
   1983     2   26.570625605555    3.532111635634    1.899785987248    1.971250000000   1.224116467376e+00  -1.286495824461e+00  -1.618173819035e+00 
   2402     2   29.925559170126    2.298868767631    1.602199289607    1.648750000000  -5.095872929087e-02  -2.642223748844e-01  -5.380466827191e-01 
   2770     2   28.618545840681    1.585744609835    4.423417978355    1.541250000000   2.952600110035e-01   2.743446188513e-02  -1.033844691331e-01 
   3861     2   33.994212075506    1.695851068100    1.182709581781    1.111250000000  -1.316365190658e-17   0.000000000000e+00  -1.074893750243e-01 
   1759     2   32.583348111569    2.121388159908    4.302813369691    2.186250000000  -1.392290113909e+00   4.594418299384e-01   3.747606091201e-02 
   2782     2   39.500430857751    1.512744709319    1.466226430460    1.541250000000  -1.174914815056e-02  -1.771494920831e-01   9.908757405356e-02 
   2568     2    1.640253827966    6.197487721349    4.649632983915    1.648750000000  -4.138346066466e-01   2.824975968279e-01  -7.713091993137e-01 
    451     1    5.523098557165    6.055692071088    2.660325883726    2.726250000000  -8.998413780987e+00  -1.060721259197e+01   2.105085672811e-01 
   3305     2    8.556167759123    8.538261582769    1.333724764894    1.326250000000  -2.237779331363e-17   0.000000000000e+00  -1.827285494006e-01 
    559     1   10.775070269105    5.325038739125    2.609880394910    2.593750000000  -3.959057272467e+01   1.617836938138e+01   9.316570459082e+00 
   4086     2   11.290708050023    8.555973084705    3.884476822654    1.003750000000  -9.593215072528e-03  -3.773836526088e-01   1.328925386601e-01 
    206     1   18.587256698424    5.899201491446    2.838600628832    2.991250000000   3.610063768970e+01  -4.059745902102e+01   2.202868077904e+00 
   1780     2   23.722364872291    6.093391628354    3.769239205152    2.186250000000   1.785520939648e-01  -1.224006036373e+00   3.229453868729e-01 
   3476     2   25.943339029345    6.677147727118    1.220002888729    1.218750000000  -1.736540648741e-17   0.000000000000e+00  -1.417993049057e-01 
    737     1   28.116736492139    5.799311602826    5.253239932732    2.461250000000   2.773137554181e-02  -1.622196425277e+01  -9.868041075338e+00 
    995     1   31.777263889015    6.016685246252    2.282554375398    2.328750000000  -2.766415441991e+00   1.466784152435e+00  -2.761643738486e+00 
    352     1   36.691205343216    4.552213519706    2.749061973394    2.858750000000  -1.258962676954e+01  -1.271871528355e+00  -3.591511668637e+00 
    468     1    2.649821455382   10.469882400651    3.849764868987    2.726250000000  -3.668185140006e+00  -1.296093810815e-01  -1.046965118730e+00 
   3539     2    1.305524535090   13.128288325187    1.252388842175    1.218750000000  -1.736540648741e-17   0.000000000000e+00  -1.417993049057e-01 
    108     1    8.380660864851   11.313595082940    5.093500656057    3.256250000000   1.107695551019e+01  -2.264478064491e+01  -1.678777904608e+01 
   1929     2   13.208266067897    9.205242397940    1.827756413113    1.971250000000   3.500777816866e+00  -4.727941475343e+00   3.183554019779e-01 
    297     1   16.137395595288   11.790592577647    4.399525555167    2.858750000000   1.959977069747e+01  -6.386542668304e+00  -6.232282146183e-01 
   3084     2   20.442043151252   10.102729884387    4.669393570517    1.433750000000   2.034112564288e-01  -1.870196538512e-01   3.464354542301e-01 
   1081     1   22.842860843596   10.029630909291    2.054958405911    2.196250000000   4.888661378762e+00   3.631754794274e+00   5.863280326128e+00 
   3398     2   25.629260427277   12.110807225416    1.343828898756    1.326250000000  -2.237779331363e-17   0.000000000000e+00  -1.827285494006e-01 
    942     1   28.064542922548    9.440738976421    2.229743032252    2.328750000000  -9.311812277883e-01  -6.515279423591e+00  -2.139397481456e+00 
   1837     2   33.802240778727    9.942390069090    1.973196122376    2.078750000000   7.585636030417e-01   1.057851394697e+00  -5.801807418466e-01 
   3841     2   32.640676604854   12.821403058663    1.113067362955    1.111250000000  -1.316365190658e-17   0.000000000000e+00  -1.074893750243e-01 
    714     1   38.488526911683    9.514293278517    2.384055526784    2.461250000000  -6.284183291486e+00  -1.030756559144e+01  -2.221422804520e+00 
   1916     2    1.970484781958   15.881254233887    3.451522340513    1.971250000000  -3.073804676380e+00  -4.927329274188e+00   1.002291695241e+01 
   4120     2    3.582151643353   16.902113634839    1.125737249106    1.003750000000  -9.701027650031e-18   0.000000000000e+00  -7.921490226231e-02 
   2093     2    4.806806124211   13.889962374673    1.811463498251    1.863750000000   2.588287719991e-01   4.603543481790e-02   1.093993651215e+00 
   1213     1    7.792596640280   16.415005580298    1.965142177483    2.063750000000   4.493056396488e+00  -1.416303838574e+00   2.614707111381e+00 
   2979     2    5.716105549312   15.679414034590    5.008670640469    1.433750000000  -2.827231430639e-17   0.000000000000e+00  -2.308609660032e-01 
   1404     1   12.239446030025   13.498826923771    1.847778775214    1.798750000000  -1.447950184087e-16   0.000000000000e+00  -1.182341051391e+00 
   3170     2   10.964840614596   17.188698739587    1.207922050675    1.326250000000   1.616819645278e-01  -2.989396121702e-01   3.940302971750e-02 
    280     1   11.355437805054   16.724720072434    5.360424814196    2.991250000000   1.393453661044e+01  -1.648855033331e+01   3.028781884268e+00 
   3734     2   14.503441759420   15.654814450943    1.129915225865    1.111250000000  -1.316365190658e-17   0.000000000000e+00  -1.074893750243e-01 
   2167     2   17.425411607494   15.338487045769    1.762703688792    1.863750000000  -3.950823914493e-01  -1.679008640349e-01  -1.305005764589e-01 
   2071     2   16.165587613671   16.399115120892    5.248885775157    1.863750000000   2.094920698320e+00   1.026439114241e+00  -1.231066846010e+00 
   1397     1   20.530502321001   13.354091306426    2.702122214652    1.931250000000   7.181332233711e+00   2.993880307768e+00   7.944511524566e+00 
   3179     2   22.184006432563   15.742211412181    1.258339120811    1.326250000000   1.546214916743e-02  -5.132496326696e-01  -2.184099615552e-01 
   3207     2   18.999343835055   15.056523353773    4.996343349298    1.326250000000   9.942465334898e-01   1.164982135298e+00  -3.673459031785e-01 
    251     1   26.115395750168   16.143503107970    2.835635756184    2.991250000000   7.299780836911e+00   1.835783157019e+01  -3.906554255635e+00 
   2042     2   30.887501107671   15.140261009194    1.781603078771    1.863750000000   1.588341344614e+00   4.963218912599e-02  -8.506758855656e-01 
   2934     2   30.054453895842   15.580417147486    4.911833973709    1.433750000000  -1.517976660834e-01  -6.500168626662e-01  -9.597977519517e-01 
     10     1   35.944810398758   14.927036842486    4.396666943391    3.918750000000   1.608714280557e+01  -5.275267613248e+01  -2.511143098348e+01 
   3010     2    1.617000317828   18.601115497439    1.433747440269    1.433750000000  -2.436447841673e-01   2.318032483594e-01  -4.547601719403e-02 
   1253     1    2.155721601426   22.204885877015    2.063744228358    2.063750000000   1.645862198332e-01  -5.313347746316e-01   5.891017169797e-02 
   3640     2    1.218748541845   18.925817684846    4.035999271136    1.218750000000   3.513564161119e-01  -2.573558797135e-02  -3.019292601318e-01 
   3956     2    1.111248281993   21.105202697188    4.853078412281    1.111250000000  -1.293143760868e-01   5.758398981000e-02  -3.931985371758e-01 
   1070     1    4.703306369755   19.024269336475    3.305142451140    2.196250000000  -5.863370766722e-01  -2.527932516586e-01  -8.664208575712e-01 
   4030     2    7.213258567408   19.776159174732    1.033052712201    1.003750000000  -9.701027650031e-18   0.000000000000e+00  -7.921490226231e-02 
   3331     2    8.466491923508   19.549914737896    3.277827942717    1.326250000000  -2.237779331363e-17   0.000000000000e+00  -1.827285494006e-01 
   2427     2   10.857635807480   20.549289487303    1.530205141691    1.648750000000  -7.405034475960e-02  -2.458236822393e+00   4.471892407164e-01 
    972     1   15.211758121447   19.049827408418    2.262214964900    2.328750000000   1.736461029574e+01   1.639184542955e+01  -8.984923036769e-01 
   3402     2   15.981325561025   22.077102279062    4.149731464014    1.326250000000  -7.437509129522e-02  -8.151016698976e-01  -3.042526973082e-01 
   2224     2   20.016211448088   17.848271708147    1.696924771960    1.756250000000   1.135101244508e+00  -1.787018711620e+00   1.346254452132e+00 
   1032     1   18.812401668791   22.157639426665    2.161960263277    2.196250000000  -1.311170273053e+01   1.852007240523e+00  -1.325942381704e+01 
    670     1   23.247474291810   20.743095914657    2.376060373552    2.461250000000   1.399295524805e+01   1.579925981560e+01   1.130141453817e+00 
   2564     2   26.228743823310   20.131965501300    5.096952649519    1.648750000000  -2.347203238460e-01  -5.550389026757e-02   8.547662160328e-01 
   2580     2   29.391921102878   19.136523441496    1.560188006330    1.648750000000  -1.868022280396e-01   1.336553423229e+00  -2.944630729035e-01 
   2221     2   27.322157767453   21.738204793832    2.214786141737    1.756250000000   3.559104985034e-01   1.578973002092e+00  -7.875056635053e-01 
   2130     2   32.897256958766   19.138224965265    1.863747496819    1.863750000000  -4.384948271315e-01   4.754841952697e-01   3.014127620845e-01 
   3767     2   34.120968233295   21.389167418595    4.291003344532    1.111250000000  -3.409358747303e-01  -3.488345895894e-01  -1.443100647062e-01 
   3885     2   36.095939175470   18.501566504869    1.007058652025    1.111250000000  -7.920823554014e-02  -2.282229061238e-01  -8.647657465190e-02 
   1187     1   36.192331321912   21.480080190947    2.006479966874    2.063750000000  -2.989124575921e+00  -6.122981104956e+00   1.098973529879e+00 
   3090     2    1.433745753129   24.499421777649    4.602710508670    1.433750000000  -7.168623293496e-01  -6.438573258819e-01  -1.811850185952e+00 
   1819     2    2.874598786656   26.472050607562    2.078748267704    2.078750000000  -1.865337734699e-01   2.187043340780e-01  -7.121848529803e-01 
    255     1    7.027432582276   23.658793924455    2.816638318780    2.991250000000  -5.304491583956e-02  -2.056172284670e+01   1.771018775180e+01 
    550     1   12.197107716682   22.890287676877    4.621924382246    2.593750000000   3.809823711403e+00  -3.002826465713e+01   1.335336091477e+01 
   2789     2   11.739612231078   26.059890844430    1.622880058852    1.541250000000  -3.512047138682e-17   0.000000000000e+00  -2.867804122076e-01 
   1881     2   15.548879308224   24.930801540351    2.079096337201    2.078750000000  -8.616836534361e-17   0.000000000000e+00  -7.036180995501e-01 
   1189     1   20.136862962371   26.161003722984    1.898518433463    2.063750000000  -6.251587613486e+00   5.154376281425e-01  -3.853996358812e-01 
   3564     2   21.763997548640   23.864379575849    3.734384272765    1.218750000000  -1.736540648741e-17   0.000000000000e+00  -1.417993049057e-01 
   3239     2   19.110538806933   23.894455647639    5.211973726103    1.326250000000  -1.014630754697e-02  -2.912264595441e-01  -3.168734047398e-01 
   2268     2   23.768508419272   25.016403277739    1.635001618157    1.756250000000  -2.309294426348e+00  -2.998340482329e+00   6.063360031694e-01 
   2831     2   28.191379410923   24.973066889890    1.524410368661    1.541250000000  -1.405952837435e+00  -3.101013466312e-01   3.365850782720e-01 
    821     1   31.678806431604   23.246744843996    2.461244412567    2.461250000000   3.181641468625e-01  -2.323829457379e-01  -8.657424137360e-02 
   4023     2   38.543561167644   22.640262781556    3.702465111557    1.003750000000  -9.701027650031e-18   0.000000000000e+00  -7.921490226231e-02 
   1683     2   36.894234804299   25.524286182719    3.729072363714    2.293750000000  -7.301152520813e-01  -3.080347056966e+00  -2.036718469961e-02 
   4105     2   38.217088855331   25.951158097575    0.886038602124    1.003750000000  -3.315126583911e-01  -7.930885715177e-02  -4.540922399610e-02 
   4164     2    1.526613037037   29.659116600931    1.031310447875    1.003750000000  -9.701027650031e-18   0.000000000000e+00  -7.921490226231e-02 
   2444     2    1.648747568483   28.020266637340    5.240164964885    1.648750000000   7.159947092717e-01  -2.450646852514e-01   6.067705484423e-01 
   3859     2    1.111160679906   30.923319733167    2.752044182842    1.111250000000   6.598395054063e-01  -1.846736204387e+00  -5.148564621098e-01 
    860     1    4.498734581975   30.565218245787    2.273495486961    2.328750000000  -1.195853092126e+00  -3.209839489660e+00   2.845710760448e+00 
   3794     2    7.768438158804   30.242587613947    1.116244659377    1.111250000000  -1.316365190658e-17   0.000000000000e+00  -1.074893750243e-01 
   1442     1    5.336046017458   27.577206874620    4.993748333856    1.798750000000   1.692591649996e+01   6.466004456860e+00  -3.810643513874e+00 
   2547     2    7.356495546832   30.560688775104    5.175708892546    1.648750000000  -1.526954919100e-01  -4.000349165872e-01  -1.702083207792e+00 
   2559     2    8.961463191970   27.810950881883    1.656425149753    1.648750000000  -4.299376647604e-17   0.000000000000e+00  -3.510707455078e-01 
   3699     2   11.483969962814   29.291461625230    1.243400299878    1.218750000000  -1.736540648741e-17   0.000000000000e+00  -1.417993049057e-01 
   2391     2   13.835681115233   30.945881781274    1.649001686771    1.648750000000  -4.299376647604e-17   0.000000000000e+00  -3.510707455078e-01 
   2443     2   17.078298706139   28.311765694879    1.652245242468    1.648750000000  -4.299376647604e-17   0.000000000000e+00  -3.510707455078e-01 
   1900     2   13.641180421470   28.075348001649    4.037844117027    2.078750000000  -8.616836534361e-17   0.000000000000e+00  -7.036180995501e-01 
    653     1   21.339626299511   30.585414141531    2.462461082006    2.593750000000   1.289157908142e+01  -2.547801024048e+00  -1.307276265696e+00 
   3662     2   23.818125622364   28.011766418527    1.195946194927    1.218750000000  -4.333630121982e-02   1.560418746376e-01  -2.661259397864e-01 
   3791     2   22.851515590325   27.254536845319    3.192490633309    1.111250000000  -1.316365190658e-17   0.000000000000e+00  -1.074893750243e-01 
   1285     1   26.980495756801   28.338414916025    1.933933925637    2.063750000000  -9.326153014263e+00  -6.753906180849e+00   3.294676521793e+00 
   3406     2   30.169443590324   27.127036354041    1.289798008446    1.326250000000  -1.335351150308e+00   1.367720683891e+00  -5.613545519300e-01 
   2094     2   30.217461256169   27.642924919822    4.395344892576    1.863750000000  -7.721265132539e+00   3.631372154690e+00  -2.928054904170e+00 
   4205     2   28.849779386685   30.567393901221    2.876674212562    1.003750000000  -3.929165448062e-01  -2.372215494834e-01  -4.191171263169e-02 
   2543     2   31.112392903316   30.891901238264    1.569993964507    1.648750000000  -1.901830605406e+00   1.098218012601e+00  -5.640720305964e-01 
   1204     1   33.441780558889   27.408112247817    2.014290950266    2.063750000000  -9.262355105951e+00  -2.479239846114e+00   7.291361495387e+00 
   3961     2   34.884331428610   29.006154044226    4.348015033324    1.111250000000  -3.467998937867e-02  -2.994123045473e-01   5.680659286321e-01 
   1954     2   36.743881458907   29.703508808714    1.993705503406    1.971250000000  -1.802918655742e+00  -2.785697558329e+00   6.599316475719e-01 
   1489     1    1.732276871149   33.407796994231    1.666380304811    1.666250000000  -1.150963859456e-16   0.000000000000e+00  -9.398333137828e-01 
   3041     2    4.273012130686   35.170793526084    1.347342104430    1.433750000000   5.866863931878e-01   4.231038143334e-01  -1.074462756515e-02 
   3137     2    5.894193454377   33.903406583982    3.058774080782    1.326250000000   6.258516428061e-01   7.626064060605e-01  -1.730945257497e-02 
   4106     2    5.591067799437   32.404333143676    4.747597041828    1.003750000000   7.837265904527e-02   1.381531845545e-01  -3.629148648411e-02 
    326     1    9.983596590233   33.168590148636    2.725548711277    2.858750000000   1.310671811225e+00   1.781034293748e+01   6.859216071665e+00 
   1930     2   16.779729904436   31.258516172331    3.739254568493    1.971250000000  -7.347949900785e-17   0.000000000000e+00  -6.000056429251e-01 
   3143     2   15.683283320779   33.292234625963    1.353271793040    1.326250000000  -2.237779331363e-17   0.000000000000e+00  -1.827285494006e-01 
    450     1   19.039832688212   35.333624112289    2.587468953295    2.726250000000   1.025067287334e+01  -1.755905427504e+00   3.480039773509e+00 
   3839     2   24.103809290344   32.662704310579    1.111258821177    1.111250000000  -1.316365190658e-17   0.000000000000e+00  -1.074893750243e-01 
   3158     2   22.856058826482   34.747646590834    1.326446439508    1.326250000000  -2.237779331363e-17   0.000000000000e+00  -1.827285494006e-01 
    920     1   23.085412782818   34.099102452248    5.243515433532    2.328750000000   6.797365028877e+00  -2.990315119736e+00   6.050551378998e-01 
    966     1   27.271838355565   33.424511103616    2.224399056127    2.328750000000  -4.849108770315e+00   8.472385668138e-01  -2.540045801550e+00 
   3504     2   30.216622005577   34.883237099335    1.136188310739    1.218750000000   2.306305859238e-01   3.707298334921e-01   3.739577149972e-01 
   1732     2   33.421776112880   34.481521494562    2.148180330997    2.186250000000   6.103732646094e+00  -2.647850897280e+00  -1.539418411907e+00 
   1485     1   37.069186111481   33.298555373425    1.665872960447    1.666250000000   2.687894072956e+00  -4.487184582215e+00  -1.103957025376e+01 
   1455     1   36.310212094269   34.320284036278    4.888901192696    1.798750000000  -1.447950184087e-16   0.000000000000e+00  -1.182341051391e+00 
    645     1    2.508590700632   37.010763898656    4.379920897258    2.593750000000   1.229269769136e+01   8.421448717127e+00  -1.775659261271e+00 
   3612     2    1.401474811133   38.990351070639    1.237777637903    1.218750000000  -1.736540648741e-17   0.000000000000e+00  -1.417993049057e-01 
    328     1    7.351892714155   38.910536129458    2.706933844305    2.858750000000   2.478577038227e+01   2.120845700847e-01  -3.876973628998e+00 
   3513     2   13.976862428886   35.729623524950    1.236194496580    1.218750000000  -1.736540648741e-17   0.000000000000e+00  -1.417993049057e-01 
   2451     2   13.847521030971   38.679148374401    1.664644475849    1.648750000000  -4.299376647604e-17   0.000000000000e+00  -3.510707455078e-01 
    219     1   24.347743531213   38.518329513953    2.838914324525    2.991250000000  -8.400409184163e+00  -4.894494079519e+00   8.258302072063e+00 
    934     1   30.458922095896   38.221044382243    2.192732145729    2.328750000000  -6.123102885846e+00   1.727245776565e+01  -8.828186467290e-01 
   3469     2   28.046868490820   39.689889954476    4.360724297091    1.218750000000  -2.621539471438e-01   4.282500667032e-01   4.122548224019e-01 
   3653     2   33.534501849122   36.268877895634    5.073473197459    1.218750000000  -1.736540648741e-17   0.000000000000e+00  -1.417993049057e-01 
   3126     2   38.373444966278   36.082990785844    1.397811440433    1.433750000000   1.951203212084e-01  -2.103854198649e-01  -4.612166436855e-01 
    222     1   35.674497738432   39.207117192785    2.875832973266    2.991250000000  -1.248017696734e+01   1.836637584493e+00   1.492682607844e+00 
   2123     2   39.220833306950   36.539871831868    4.761066161602    1.863750000000  -1.892526308075e-01  -1.789464542875e+00  -1.832876875718e+00 
   3217     2   39.630420202471   39.908268294106    1.312784877620    1.326250000000  -6.033485278749e-01  -2.691403033095e-01  -5.994925688719e-02 
    258     1    3.765969569193    2.920214655103    7.153293470893    2.991250000000  -2.037363566458e+00  -2.532580054551e+01  -3.538189772516e+00 
   3327     2    1.240501404572    2.097942564205   10.486737453579    1.326250000000   3.964925827459e-01  -2.470678820682e-01  -1.691268314607e-01 
   3879     2    5.568395659906    1.051833493248   10.333487621245    1.111250000000  -1.294867658289e-01  -3.703220980242e-02   9.770470950752e-02 
   2592     2    7.952407161925    3.959100090137    5.555236215173    1.648750000000  -5.630295129959e-01  -1.587074936426e+00  -4.287265410038e-01 
    561     1   11.694345586807    2.525533853502    6.866732263422    2.593750000000  -8.740071388194e+00  -1.088281896897e+00  -1.189933293941e+01 
   4203     2   14.618754113454    2.453223687812    8.928917824871    1.003750000000  -3.005136499996e-01   7.872185925953e-02  -3.499219950486e-01 
   2163     2   17.585428203738    1.797649504520    9.151084652904    1.863750000000  -2.369927957654e+00   6.414154558443e-01  -9.249887196347e-02 
   3561     2   15.059308487765    1.132798605222   10.649476898821    1.218750000000  -6.685443510069e-01  -5.323840565979e-01  -5.137250851840e-02 
    507     1   21.304185748692    2.705211045761    6.701760375996    2.726250000000   5.437899924174e+00   1.813992819423e+01  -9.502730568871e+00 
   2029     2   24.140149264679    1.892004365424   10.317257080463    1.971250000000   7.191600934602e-01   1.751898508519e+00   2.569659696892e-01 
   2939     2   25.281470703204    3.860962442522    7.090381088451    1.433750000000   2.379733966129e-01   2.288330591267e-01  -6.842603996011e-02 
   1569     2   28.558675550369    2.518029001306    9.054804963378    2.616250000000   6.478961071931e+00  -3.891267389990e+00  -5.518128141295e+00 
   1500     1   33.248378461893    4.141427235046    7.420270127130    1.666250000000   6.607945887372e-01   2.884406198398e+00  -2.130450961153e-01 
   1549     2   37.309841770933    2.658777358602    7.880698728144    2.723750000000   9.512030771293e-02   1.243385851849e+00  -2.395912629319e+00 
   3303     2    1.328356532820    6.572501727032    7.584368345630    1.326250000000  -4.759901368794e-01  -1.805436236415e-02   1.862078818173e+00 
   3901     2    5.231592080862    8.321482774857    5.848761872965    1.111250000000  -1.316365190658e-17   0.000000000000e+00  -1.074893750243e-01 
     45     1    8.192537656631    6.630748604521    9.919971492779    3.521250000000  -7.703517576563e+00  -1.910292004008e+01  -2.388838260330e+01 
   3584     2   12.634158665629    5.621373078403    8.755001162039    1.218750000000   1.886486229196e-01   5.740235486883e-02  -5.578998565710e-01 
   1140     1   12.591838769685    8.317049253151    6.726520875493    2.196250000000  -2.762137228856e+00   2.207451003836e+00  -6.041605315407e+00 
   1664     2   15.877102527271    5.118345302976    7.261576638463    2.401250000000   3.488925370621e+00  -2.034486610210e+00  -1.360365168884e+00 
   3958     2   15.865530327371    8.652871806910    6.787832193880    1.111250000000   1.132255520206e-01  -7.770647395228e-01  -7.644309758085e-01 
   1835     2   14.487963089155    7.423277749461   10.707633852360    2.078750000000   1.088082483853e+00   2.666057195980e+00  -3.247773801545e+00 
   2370     2   18.715531818638    8.459112499980    6.680779534814    1.756250000000   6.454337956384e-01  -1.678498433437e+00  -3.750347524579e-01 
   3475     2   21.234756556095    6.757340819062    5.997501591556    1.218750000000  -1.736540648741e-17   0.000000000000e+00  -1.417993049057e-01 
   2885     2   21.665801520275    8.805728376031    7.629912895228    1.433750000000  -3.299634335563e-01   1.920518981875e+00   3.686551393693e-01 
    457     1   19.799441969020    6.313596002789   10.380790953525    2.726250000000  -1.960984314093e+01   3.638628522784e+01   1.016130974071e+00 
   1454     1   23.507902475336    8.780504218073   10.178828678209    1.798750000000  -2.012855414301e+00   7.407476060092e+00   1.225775444311e+00 
   1178     1   26.631854533609    6.873850900539    9.263923174715    2.063750000000  -4.222453739832e+00  -1.555943918589e+00  -2.912565645872e+00 
   4183     2   23.366922555051    5.867568955984    6.979473784632    1.003750000000  -9.701027650031e-18   0.000000000000e+00  -7.921490226231e-02 
   2027     2   30.759849129458    6.517059586938    8.686758357454    1.971250000000  -4.038835118990e-01  -1.484783728374e+00  -1.754527443968e+00 
    266     1   34.777067924476    8.389900712602    6.588509977458    2.991250000000   9.662185619818e+00   2.404079891462e+01  -6.316411203088e+00 
   3973     2   33.308145926511    7.266822779921   10.250675811683    1.111250000000   1.459385898461e-01  -1.946303885989e-02   2.027298035072e-01 
   1701     2   38.574709524864    6.976572665660    9.851801334285    2.293750000000   7.045195032842e-01   7.250207215548e-01  -1.746051429817e+00 
   1107     1    2.892948870154    9.555296626945    8.618886989262    2.196250000000  -1.743384786921e+01   1.227005267705e+01  -4.599755350038e+00 
   1778     2    4.243804751711   13.304502298916   10.504804005505    2.186250000000  -9.140822892077e-01  -1.834225435974e+00   2.254184998890e+00 
   3606     2    4.698213138921   12.182655145574    7.388420657669    1.218750000000  -5.609184340574e-02  -2.527321230737e-01   3.292878919362e-01 
   3256     2   12.567451527044   12.738826044149    6.316525425965    1.326250000000   4.145083964104e-01   2.976010118145e-01   4.709617144612e-01 
    265     1   12.048386996352   11.818053891082   10.452877968246    2.991250000000   3.622767967870e+00   1.991367319255e+01   7.961991850438e+00 
   1126     1   16.936935417217   10.833668280640    9.126863552372    2.196250000000  -6.877736340510e+00  -3.279958129395e+00  -3.208477375566e+00 
   2644     2   19.748485087040   11.932342753111    6.848376654987    1.541250000000   1.999523683917e-01   4.090761632106e-01  -7.292470139370e-01 
   2716     2   22.178638518559   11.787306621968    8.661327273900    1.541250000000   2.601748183370e-01  -6.004155147821e-02  -4.693297456403e-01 
    485     1   25.220883638281   10.250462043553    6.189016155977    2.726250000000   1.380039194366e+01   1.426324333763e+00  -1.376653145047e+00 
   3449     2   24.745251398516   12.041050336863    9.560386231021    1.218750000000   6.099074870581e-01   2.842556943651e-01  -1.107322557749e-01 
    690     1   30.555395492942   11.799658299962    5.564287390635    2.461250000000   2.573633002350e+00  -2.420865377830e+01  -2.924658807543e+01 
   1292     1   28.640797590422   10.455811025270    9.373852815787    2.063750000000   4.178546037176e+00  -1.293617289048e+01  -1.696466655522e+00 
    827     1   32.907935241882   11.214177771238   10.726107430611    2.461250000000   9.923768315464e+00   2.111905449675e+01   4.998710342148e+00 
   2374     2   37.241269011038   11.732988448915    8.768651690264    1.648750000000   5.552890951416e-01  -1.054716385003e+00   7.976455678373e-01 
   3915     2   38.524372564251    9.539003306986    7.692698378628    1.111250000000  -5.372460474609e-01   2.486280093435e-01  -2.058631946325e-01 
   1948     2    1.919314907582   13.640200773927    7.161742254054    1.971250000000  -7.751249009743e-01   2.484368706355e-01   2.509838161292e+00 
   3470     2    4.204369408131   16.689474751089   10.138128569882    1.218750000000  -1.736540648741e-17   0.000000000000e+00  -1.417993049057e-01 
   2608     2    1.531819960657   15.839807318053   10.720078488425    1.541250000000   1.919478087802e-01   1.990922543890e+00   1.100174209190e+00 
   1535     2    8.234046656945   16.284229946694   10.131968999998    2.831250000000  -4.186961051542e+00  -6.511949096341e+00   1.847135086814e+00 