ITEM: TIMESTEP
1049000
ITEM: NUMBER OF ATOMS
10258
ITEM: BOX BOUNDS fm fm fm
0.0000000000000000e+00 8.0000000000000000e+01
0.0000000000000000e+00 8.0000000000000000e+01
0.0000000000000000e+00 8.1509433962264154e+01
ITEM: ATOMS id type x y z radius fx fy fz 
    806     1    3.020535031464    2.150896915356    3.692037761455    2.196250000000  -3.311807554157e+00  -1.856728950515e-01   7.404617763823e+00 
   6497     2    1.096096635777    1.956068325435    1.073986855549    1.111250000000  -4.518118241685e-01  -1.047827968796e-01   2.724293074571e-01 
   7022     2    4.926563769750    1.356396729949    1.107031293606    1.003750000000  -9.701027650031e-18   0.000000000000e+00  -7.921490226231e-02 
   4775     2    7.381681348027    1.419161457951    1.433748655575    1.433750000000   1.125473040314e+00   6.124350920531e-01  -2.793100266857e-01 
   5478     2   10.149307077160    1.410225810421    1.326644353453    1.326250000000  -2.237779331363e-17   0.000000000000e+00  -1.827285494006e-01 
   3144     2   10.186764148668    1.724927254205    4.410037449358    1.756250000000   4.198754995596e-01   3.571848690044e-01  -2.321331557439e+00 
   2006     2   13.420623159148    2.055446023901    2.021125531857    2.078750000000   1.209422107204e+00   3.195404228027e+00   2.713026476558e+00 
   5640     2   16.132591108381    1.226927410820    3.753189161985    1.218750000000   7.106059652870e-01  -8.074571797079e-01   2.569858944240e-01 
   5186     2   16.646419402504    1.291691225171    1.278719062136    1.326250000000   4.187701441115e-01   1.361563747516e+00   2.756731815170e-01 
    524     1   18.448590131328    4.163863940632    2.772873657989    2.461250000000   4.340992254962e+00   3.461875923222e+01   1.663837216328e+01 
   5056     2   21.289434723104    1.477433702200    1.327179246523    1.326250000000  -2.237779331363e-17   0.000000000000e+00  -1.827285494006e-01 
   4487     2   25.250023896814    1.397252279333    1.384281468554    1.433750000000  -1.881711984519e+00   1.497534997296e+00   1.268590388354e+00 
   3042     2   23.830610521384    1.854269374975    4.164615748903    1.756250000000  -2.809800995863e+00   7.927155241341e+00   1.017503642252e+01 
   5547     2   23.771361995796    3.724675575062    1.270532282406    1.326250000000  -2.900505429716e+00   7.957250552950e+00   2.165580133442e+00 
   6570     2   28.752500525720    1.112216381796    1.111251878696    1.111250000000  -1.316365190658e-17   0.000000000000e+00  -1.074893750243e-01 
    498     1   27.616924734603    4.342306032955    2.537997026017    2.593750000000   6.928363099345e+00  -8.856856240891e-02  -1.874826854235e+01 
   5507     2   27.653819300556    1.265407985281    4.896970299704    1.326250000000   8.514232308371e-01   2.036182507873e-01   3.292371932184e+00 
   3362     2   30.858840284820    1.621656297382    2.831734529486    1.648750000000  -2.768552801950e+00   1.816518896143e+00  -8.841543546878e-01 
   7039     2   31.439425147717    3.457721585390    1.003914748601    1.003750000000  -9.701027650031e-18   0.000000000000e+00  -7.921490226231e-02 
   3088     2   33.983007495197    2.409423419122    1.730367563667    1.756250000000  -2.061080388550e+00  -4.628552623835e+00   2.994280749816e+00 
   2084     2   33.632166289484    3.726055836546    5.331090740637    1.971250000000  -7.925519476514e+00  -4.758971557560e+00   5.977837592982e+00 
   1109     1   36.286740832092    1.640255668267    4.094807662475    1.666250000000  -8.679508108879e+00  -8.286997283460e+00   2.581988183898e+00 
   4977     2   37.208321873374    1.287270301405    1.309797919700    1.326250000000  -1.124194343713e+00  -2.999651762075e-01  -3.555463475641e-02 
   1102     1   39.106168023288    3.676135470698    1.774771852553    1.798750000000  -2.372091115205e+00  -1.595154618089e+01   1.097535099997e+01 
   2488     2    1.832239911801    5.526923886790    1.821244366774    1.863750000000   2.024924332993e+00  -1.292018006905e+00   1.986384459538e+00 
   2590     2    1.820854615946    7.397885719139    4.963475746233    1.863750000000  -2.658308148384e-01   1.343276439235e+00  -1.629109488567e+00 
   5864     2    3.993157929429    5.308853349520    4.465561321434    1.218750000000  -7.078246150631e-01   1.953207554179e-01  -2.061449834240e-01 
   7353     2    1.114464471340    8.752310621352    1.004065173606    1.003750000000  -9.701027650031e-18   0.000000000000e+00  -7.921490226231e-02 
   1931     2    6.094491675940    4.610097893478    2.047718693475    2.078750000000   1.660628256854e+00  -7.282742872776e-01  -4.550268773455e-01 
   5155     2    7.653817417638    7.193748567334    3.577441584533    1.326250000000  -1.652781198733e+00   1.019491763931e+00   5.773036077802e-01 
   6917     2    7.833826187230    7.816164955511    1.156529004593    1.111250000000  -1.316365190658e-17   0.000000000000e+00  -1.074893750243e-01 
   1993     2   10.228133939199    4.743762655475    2.064713844024    2.078750000000   2.429270063614e+00   3.672587548062e+00  -4.137521712633e+00 
    975     1   16.021085655682    7.885470196072    2.008680302116    2.063750000000  -6.069051479106e+00   1.313737080488e+01  -5.855014650151e-01 
   3666     2   13.594737974059    5.482616877042    3.142877244273    1.541250000000  -1.231990614615e-01  -2.365897598997e+00  -2.634734940381e+00 
   3294     2   20.016619030247    7.798522528713    1.648799748974    1.648750000000  -4.299376647604e-17   0.000000000000e+00  -3.510707455078e-01 
   6724     2   18.361788143546    8.598045981108    4.003662877526    1.111250000000  -8.476749386691e-01   3.886743819023e+00   7.375328808416e-01 
   4244     2   22.298032641626    4.644301154187    3.465482989418    1.541250000000   9.240761413239e-01   1.480776882730e+00   6.600131641709e+00 
   1342     2   24.127951558267    8.048824727778    2.359519385957    2.508750000000  -1.378742671339e+01  -3.111387838004e+01   9.684338178486e-01 
   5857     2   27.784551878726    8.130908822622    3.078396048960    1.218750000000   8.789859870393e-02   8.821717876010e-02   7.134078465644e-02 
   5029     2   29.621458712979    7.949877871763    1.326248235767    1.326250000000   8.578622176312e-02  -1.293751911739e-01   8.412606468802e-02 
   5427     2   31.105758685520    5.751556901624    1.326248556167    1.326250000000   1.182108206382e-01  -2.369567294222e-02  -1.560284419976e-03 
   6515     2   33.149528318527    5.055063324641    2.457314226139    1.111250000000   9.300298236929e-02   1.162736136983e-01  -1.276896159595e-01 
   5752     2   31.168188790630    5.002556040519    3.757733776282    1.218750000000  -3.778180550002e-02   9.993991110785e-02  -3.238180525489e-01 
   4524     2   38.613537270332    4.496780467998    5.357771688903    1.433750000000  -2.445326042711e+00  -2.625215084307e+00   3.780660751352e-02 
   2320     2   39.134803922255    7.691149509972    1.908969787201    1.971250000000  -1.406187647488e+00  -6.607146467781e+00  -2.531808568165e-02 
   2450     2   36.300648819902    5.475253778554    3.220801509347    1.863750000000  -2.632769573172e+00  -8.880454592300e+00   4.136537855370e+00 
   7339     2    0.956008900464   11.326849692337    2.755067542568    1.003750000000  -4.609185107984e-01   3.700695440639e-01  -8.837944365223e-01 
    542     1    4.078215340497   10.005625443972    2.374937248491    2.461250000000  -1.395745032839e+01   5.672261407599e+00  -1.048169793002e+01 
   2468     2    6.929230787434   11.728845395564    4.942566702795    1.863750000000   3.128321133263e+00  -4.488540966471e+00  -1.759417571780e+00 
   3603     2    7.473733835947   12.211219455401    1.580709837008    1.648750000000  -1.867034434035e-01  -1.563999067293e-01  -5.105164516717e-01 
    147     1   11.247144607815    9.718334696350    3.080913306404    3.123750000000   3.487980113889e+01   6.061623408285e+00   6.075013483595e+01 
   6048     2   15.165936890929   11.064571508846    1.224815510744    1.218750000000  -1.736540648741e-17   0.000000000000e+00  -1.417993049057e-01 
   7328     2   13.513756975368   12.595268716564    1.013201214557    1.003750000000  -9.701027650031e-18   0.000000000000e+00  -7.921490226231e-02 
   3674     2   15.570088347070   10.330748980463    4.560647753442    1.541250000000   4.770553950220e-01  -6.378227368114e-01   3.692533539418e+00 
   1662     2   18.520805601159   11.304844752453    2.086533633036    2.186250000000   1.835581622933e+01   7.840823741280e+00  -3.949586540461e+00 
   2387     2   22.485723437046   12.067208766566    1.829785978862    1.863750000000  -3.909897673875e-01  -1.939634454669e+00  -6.690920348279e+00 
   5877     2   25.449907922913   11.585246536975    1.135150991301    1.218750000000   2.910972478567e-01  -9.684895692335e-01  -1.281151268631e-02 
   5505     2   27.892294157026    9.973540021803    1.326204702333    1.326250000000   1.419877140786e+00  -5.124089275806e+00   2.092941523692e+00 
   2501     2   30.528376216357   12.428791145056    1.750227492321    1.863750000000  -5.186363823712e+00  -1.967340636533e+00  -4.341466808692e-01 
    287     1   33.092633011038    8.894737667700    3.464567251051    2.858750000000   1.175695356459e+01  -3.549015654530e+01   2.588377401158e+01 
   6632     2   35.115827667175   12.372364194617    3.331828239797    1.111250000000  -1.316365190658e-17   0.000000000000e+00  -1.074893750243e-01 
   5102     2   33.690440698204   12.462315874791    1.326605171999    1.326250000000  -2.237779331363e-17   0.000000000000e+00  -1.827285494006e-01 
   7389     2   31.312268576523   12.156825460179    4.528240460951    1.003750000000  -9.701027650031e-18   0.000000000000e+00  -7.921490226231e-02 
   5146     2   36.430320901298    9.482983518595    1.170379181420    1.326250000000  -2.378040348412e-01   8.056042634416e-02   2.850729711354e-01 
    535     1   38.569103829265   12.297195334343    2.345089175382    2.461250000000  -6.948102466296e+00   2.095282566105e+01   1.235438887961e+01 
   6494     2   37.008294157409    9.225177247248    3.409471563272    1.111250000000   5.108752369415e-02  -1.896475210087e-01  -2.969965120770e-01 
   4134     2    1.541036547097   13.449631947269    1.479155766205    1.541250000000   2.196029880783e+00  -9.866139777005e-01  -1.489486743696e+00 
   1297     2    3.402891464052   14.447929196407    4.975489503226    2.616250000000   7.481237138854e+00   3.365758795058e+00  -8.090809772151e+00 
   4608     2    5.405982917458   14.520163666625    1.434506903119    1.433750000000  -2.827231430639e-17   0.000000000000e+00  -2.308609660032e-01 
   3311     2    8.365445835461   14.630835441794    3.576106864036    1.648750000000  -2.937097067479e+00   4.511380330659e-01  -1.864502220424e+00 
   2241     2   11.609951706723   14.677871140825    1.971319177975    1.971250000000   7.489551794505e-01  -8.737529797218e-02  -2.612515339386e+00 
   6642     2    9.983788807902   17.056561512019    3.368343015660    1.111250000000  -1.316365190658e-17   0.000000000000e+00  -1.074893750243e-01 
   5265     2   11.961847142085   15.568220333963    5.126777172584    1.326250000000  -4.934344263747e-01  -7.039288507076e-02  -3.176544348759e-01 
   6450     2    9.883252798744   17.184657857161    1.113406068138    1.111250000000  -1.316365190658e-17   0.000000000000e+00  -1.074893750243e-01 
   4349     2   15.276750395721   14.559790078134    1.348407778837    1.433750000000  -2.185471592544e+00  -7.656592200510e-02   3.510298989713e-01 
   1465     2   15.460771410590   16.552113934190    4.502584081215    2.401250000000  -9.709747264918e+00  -1.542812145781e+00   3.029118757934e+00 
   5792     2   14.877302593315   17.528525111615    1.147383098027    1.218750000000  -3.054689415003e-01  -1.943011668045e-01   5.651215370744e-02 
   2984     2   18.438279689786   15.415386035848    1.786175527964    1.756250000000  -5.196370149520e-17   0.000000000000e+00  -4.243158233981e-01 
   5320     2   21.101410666380   13.867663042769    4.004401797209    1.326250000000  -1.242021405049e+00  -3.714091189268e+00  -1.767245637834e+00 
   2580     2   19.580458177902   16.314820613344    5.373423715791    1.863750000000  -3.465161588741e+00  -4.573898082861e+00  -1.446674701996e-01 
   5711     2   24.795944666909   14.007519940793    1.209237732691    1.218750000000  -5.067581868352e-01   1.203855231623e+00   3.907197195222e-01 
   6359     2   25.931082855882   16.554539582751    4.399552804166    1.111250000000   4.755730988363e-01  -2.633381298830e+00   7.227784855226e-01 
    445     1   22.808278651230   17.006229061989    2.448536994426    2.593750000000   8.351419253158e+00  -1.895235093893e+01   4.456511633471e+00 
   2525     2   27.146223144444   15.903274364836    1.780643694866    1.863750000000  -2.387584756012e+00  -2.542680166895e+00   1.504898489453e+00 
   1670     2   31.124312840953   16.395941057705    2.101738260942    2.186250000000  -9.495900085196e+00   4.077757163439e+00  -5.117677432485e+00 
   3963     2   34.734909975103   15.185662365539    1.496148814283    1.541250000000  -7.364813644381e+00   2.683822443185e+00   5.525142940460e+00 
   3293     2   33.086008014478   14.143104788329    4.346185047571    1.648750000000   4.262923693634e+00   5.373605946079e-02  -2.473189469785e+00 
   6901     2   37.497905209117   17.058966291442    1.593650696309    1.111250000000  -1.316365190658e-17   0.000000000000e+00  -1.074893750243e-01 
   1676     2   36.549462761785   15.632181201767    4.658980470243    2.186250000000   1.121218363778e+01  -2.638139651623e+00  -1.080984847821e+01 
   1997     2    2.036979728745   17.826886405996    2.015683736914    2.078750000000  -1.993099227548e-01  -3.722485862148e+00  -2.112614731304e-01 
    463     1    6.599364103179   18.309677311578    2.492477253479    2.593750000000  -3.796291707840e-02  -5.775098949554e+00   1.370536127687e+01 
   3460     2    8.843068743464   21.067683700679    4.879374188660    1.648750000000   1.945524531184e-01  -1.538974043971e+00  -2.648491467206e-01 
   6817     2    8.207056494009   22.076565371663    1.208816988453    1.111250000000  -1.316365190658e-17   0.000000000000e+00  -1.074893750243e-01 
   5480     2   12.377118591326   17.846052626482    1.326250283453    1.326250000000   7.620522304205e-01   2.476999192295e+00  -5.227987336626e-01 
   2323     2   10.876521552301   20.699120509624    1.933989498872    1.971250000000  -2.302989491727e-01  -1.106802882103e+00  -8.091511505190e-01 
    568     1   15.781919556720   20.854788484809    2.343578501418    2.461250000000  -1.017649762100e+00  -8.619768314413e+00  -7.086249794811e+00 
   4922     2   18.567558576978   18.485487745127    1.355226667539    1.326250000000  -2.237779331363e-17   0.000000000000e+00  -1.827285494006e-01 
   3990     2   19.991411927943   21.005448962960    1.568812313193    1.541250000000  -3.512047138682e-17   0.000000000000e+00  -2.867804122076e-01 
   6397     2   21.118813646360   18.853822887375    5.179678550041    1.111250000000   3.995644690653e-01   5.230079375504e-01   4.616386307658e-02 
   5061     2   25.752273715824   19.755633722749    1.484079725043    1.326250000000  -2.237779331363e-17   0.000000000000e+00  -1.827285494006e-01 
   3217     2   23.027919314922   21.192454895998    2.631831063854    1.648750000000  -1.377918596263e+00  -1.450207829475e-01   9.368484880453e-01 
   7052     2   26.343945130319   20.505564859771    4.128463733312    1.003750000000  -9.701027650031e-18   0.000000000000e+00  -7.921490226231e-02 
   3954     2   28.662002825523   19.176576333494    1.547204063787    1.541250000000  -3.512047138682e-17   0.000000000000e+00  -2.867804122076e-01 
   2766     2   28.468451160875   17.871303566308    4.612883829331    1.756250000000  -5.043920573982e+00   5.484839003623e+00  -1.079045323036e+01 
   5438     2   31.277434766086   20.629497220267    1.352325373205    1.326250000000  -2.237779331363e-17   0.000000000000e+00  -1.827285494006e-01 
   6069     2   32.985920987287   18.408112984020    4.012637976720    1.218750000000  -1.112474163761e+00   1.800637574284e+00   1.159572274851e+00 
   1153     2   35.913880854439   21.070706263613    2.738891635591    2.938750000000  -2.786871549906e+00   2.131050508679e+01   1.669979311526e+01 
   5458     2   38.855664806845   18.168973565540    3.815581248262    1.326250000000  -2.237779331363e-17   0.000000000000e+00  -1.827285494006e-01 
   1500     2    2.359347810239   22.355921162788    2.370582559931    2.401250000000  -2.800722292566e+00  -1.490551985684e+00   3.109463251429e+00 
   3196     2    1.731095334169   26.256298292282    1.626398675152    1.648750000000  -1.352104383113e+00   3.265161274496e+00   1.278650732711e+00 
   2849     2    1.875240737133   26.588656010819    5.012464367081    1.756250000000  -5.196370149520e-17   0.000000000000e+00  -4.243158233981e-01 
   6808     2    4.564683798999   25.360051481808    2.513699385666    1.111250000000  -1.316365190658e-17   0.000000000000e+00  -1.074893750243e-01 
   5302     2    5.953038329889   23.371303183313    1.329832373015    1.326250000000  -2.237779331363e-17   0.000000000000e+00  -1.827285494006e-01 
    466     1    8.994075668638   25.621374306762    2.495572657300    2.593750000000   6.351875019493e+00  -8.888636200456e+00   1.337440749072e+01 
   5530     2   12.701810714956   24.828873074621    1.331486951864    1.326250000000  -2.237779331363e-17   0.000000000000e+00  -1.827285494006e-01 
   1622     2   12.632812822833   23.331377945649    4.733267747120    2.293750000000  -2.688501380151e+00   2.956392490130e+00  -8.936474771750e+00 
   5359     2   15.471313760107   24.378794785445    1.166680307357    1.326250000000   7.466084919870e-01   1.252187594073e-01   1.303764922544e+00 
     68     1   17.741347500923   26.294262945740    4.630622257221    3.388750000000  -1.516343540384e+01   2.941092677112e+01  -3.318822024820e+00 
   2983     2   21.450313040281   24.107378171378    1.761718398275    1.756250000000  -5.196370149520e-17   0.000000000000e+00  -4.243158233981e-01 
   4382     2   24.740890983204   23.359644024307    1.380725918176    1.433750000000   2.842803324165e-01  -6.489750901092e-01  -5.160176330246e-01 
   5290     2   25.078599385663   22.798781160394    4.203642282096    1.326250000000  -2.237779331363e-17   0.000000000000e+00  -1.827285494006e-01 
   2755     2   27.598408152899   22.485346203644    2.375978007436    1.756250000000   1.573237816337e-01   4.680684131832e+00  -6.131893970701e-01 
   1886     2   30.407391186602   25.056637200291    1.933193628893    2.078750000000   1.281784510124e+00   1.581991522107e+00   4.057471849024e+00 
   2487     2   27.871860591337   25.920370768990    4.800840616892    1.863750000000   4.969117026005e+00   1.269078563157e+00  -3.298667249486e+00 
   6439     2   32.650237497976   26.618403506257    3.581244211460    1.111250000000  -1.316365190658e-17   0.000000000000e+00  -1.074893750243e-01 
   3379     2   34.097221568816   25.250641893279    1.628970629039    1.648750000000  -1.220442951664e+00  -5.843912724398e+00  -4.204562605591e-01 
   2718     2   37.452590985618   25.695019583828    1.726261282482    1.756250000000   1.891912918596e+00   2.729485682823e+00  -6.719999591936e+00 
   5808     2   35.771345020049   24.999781099521    4.043795612358    1.218750000000   3.205537532340e-01  -2.590265330509e-01  -2.063596026894e+00 
   2257     2   39.487206689341   23.983002992774    4.303748953105    1.971250000000   1.393695724197e+00   4.620289896848e-01   4.329475747005e-01 
   6722     2   39.952063473495   22.383216180452    1.204672143751    1.111250000000  -1.316365190658e-17   0.000000000000e+00  -1.074893750243e-01 
   1224     2    2.827185098419   30.320558033043    2.704028526784    2.723750000000   1.237916990240e+01   8.400753320835e+00   3.732983457856e+00 
   7296     2    5.050337887086   26.953171018055    1.146644828195    1.003750000000  -9.701027650031e-18   0.000000000000e+00  -7.921490226231e-02 
   3820     2    6.676993681184   28.912349018225    1.442962305576    1.541250000000  -1.430274302838e+00   1.490853035357e-01  -4.640610682778e+00 
   1947     2    8.643401589409   30.198786932631    4.039223060075    2.078750000000  -6.137991316966e+00  -6.242297204677e+00   2.329735547201e+00 
   4032     2   10.906327507146   29.108169774402    1.498654550722    1.541250000000  -9.911986517836e-01   2.441107815248e-01   1.090362991672e-01 
   4628     2   12.611951227584   27.129472437561    3.419982537320    1.433750000000   2.942247267784e+00  -6.872918776636e+00   3.008313647858e+00 
   2774     2   12.424201997069   30.409180501624    4.261772038148    1.756250000000  -2.957176858617e+00   8.353153330972e-03   5.065606797482e+00 
   4451     2   14.529996175260   26.939265393324    1.296526091261    1.433750000000   7.105296743102e-01   1.130486604525e-01  -1.891457010061e-01 
   6474     2   13.871672165087   30.346168500695    1.126584124633    1.111250000000  -1.316365190658e-17   0.000000000000e+00  -1.074893750243e-01 
   6845     2   14.444312384936   28.830968797584    2.950945117873    1.111250000000  -1.908338200883e-02  -1.129575850064e+00   1.462930738293e-01 
   5385     2   20.789284908976   28.015044998004    1.331985256794    1.326250000000  -2.237779331363e-17   0.000000000000e+00  -1.827285494006e-01 
   6528     2   19.790729082090   30.481935951829    1.068077848493    1.111250000000   1.680046698471e+00   2.007076022823e+00  -2.082236758200e+00 
   4031     2   20.200337866331   30.403416164668    3.635182111276    1.541250000000  -3.326665935921e+00   4.392151075881e-01  -6.085122829318e+00 
   7256     2   21.595553026185   28.308880119610    4.013754237389    1.003750000000  -1.065639078603e-04  -1.866832782962e-02  -7.150444991374e-02 
   1323     2   24.461725221615   27.117067243731    2.369888842277    2.508750000000   9.805929427966e+00   2.117630362627e-01   3.461495777592e+00 
   6807     2   26.155142032552   30.018498266374    1.089340697780    1.111250000000   4.980687622738e-01   1.138689662970e+00  -3.993515098118e-01 
   7407     2   30.728012664776   26.676860800396    4.553847370609    1.003750000000  -9.701027650031e-18   0.000000000000e+00  -7.921490226231e-02 
   3741     2   28.324245920239   28.069529901903    1.545333988569    1.541250000000  -3.512047138682e-17   0.000000000000e+00  -2.867804122076e-01 
   6702     2   30.777661207248   29.317120605817    1.112399278753    1.111250000000  -1.316365190658e-17   0.000000000000e+00  -1.074893750243e-01 
   6628     2   30.606946679493   28.073689781889    2.950186851794    1.111250000000  -1.316365190658e-17   0.000000000000e+00  -1.074893750243e-01 
   4559     2   33.188553756055   28.171887607562    1.426768827051    1.433750000000   1.032765187313e+00  -3.204938476497e+00   1.037702963848e+00 
   5628     2   34.909567679894   27.434923646640    3.299762872456    1.218750000000   2.027365789771e+00  -2.859309804879e+00  -1.406480462569e+00 
   5333     2   32.299138679875   28.773079846909    4.724312441412    1.326250000000  -1.870675130980e+00  -9.103145470144e-01  -4.412294882865e-01 
    652     1   37.977522819825   29.117117742942    3.860331810485    2.328750000000   2.125971380214e+01   6.661941306666e-01  -2.814229308265e+01 
   3349     2    1.628380905321   34.435235808948    1.604735815422    1.648750000000  -3.811109942617e-01   1.608975636540e+00   4.475415095221e-01 
   2534     2    1.803424512841   34.281947111689    5.054547254814    1.863750000000  -2.252214991022e+00   5.262272210355e+00   1.941100048367e+00 
   5650     2    6.301182154366   31.658086370518    1.220128156731    1.218750000000  -1.736540648741e-17   0.000000000000e+00  -1.417993049057e-01 
   1229     2    5.750598573892   35.295800184307    2.652270455779    2.723750000000  -6.752181317657e+00  -3.788721692399e+00   2.364483738318e+00 
   7172     2    6.069030150151   31.802265395022    3.793292831590    1.003750000000   3.000303877052e-01   1.222176842042e+00   2.653993508587e+00 
   6567     2    8.628864971697   31.872208845913    1.138000905870    1.111250000000  -1.316365190658e-17   0.000000000000e+00  -1.074893750243e-01 
   6918     2    9.896787903891   33.911853151693    1.140544243262    1.111250000000  -1.316365190658e-17   0.000000000000e+00  -1.074893750243e-01 
   5060     2   11.867524874511   31.764195227063    1.553691283514    1.326250000000   1.665273998748e+00  -1.634184599388e-01   2.556627810463e+00 
   2210     2   12.665784212854   33.999088310662    5.183648362776    1.971250000000   1.620231823530e+00  -4.148539703689e+00   2.704912296082e+00 
   3114     2   13.298939895766   34.444928447730    1.656706008779    1.756250000000   4.819008116654e+00  -1.350753197446e+00   9.280838258564e-01 
   1298     2   16.383650312547   31.952107377618    3.366285717919    2.616250000000   1.433314998094e+01  -1.153704067716e+01  -1.689075643471e+01 
   3690     2   19.205760247760   34.252236874622    1.469318301977    1.541250000000   2.107176064164e+00  -1.014891023602e+00  -2.131101020612e+00 
   2262     2   21.437989983533   34.865375119646    3.983733711936    1.971250000000  -3.306445984636e-01   1.773850779515e+00  -2.399573131879e+00 
   2862     2   22.105504930392   32.086968535127    1.604728570317    1.756250000000  -6.152715682983e-01   6.463293528650e-01   4.626217354089e-01 
   2325     2   23.380262412250   31.597087429658    4.868666960195    1.971250000000  -3.839713065536e+00  -1.595701742917e+00  -3.672329977338e-01 
   1767     2   25.857253311124   33.561340676557    2.108221107079    2.186250000000   6.908003887627e+00   1.145125824027e+00  -2.201601136476e-01 
   6408     2   22.907098618372   34.969456492610    1.130745902440    1.111250000000  -1.316365190658e-17   0.000000000000e+00  -1.074893750243e-01 
   4255     2   29.167597564218   31.275632397187    1.344706257232    1.433750000000  -6.118632308207e-01  -8.379853548249e-01   7.116375919431e-01 
   3310     2   29.467373388653   34.689631233327    1.623541312853    1.648750000000   3.713638324989e-01   1.784415097471e+00   5.711780756246e-01 
    306     1   32.922241070521   32.130234802899    2.623575670043    2.726250000000   1.327955341467e+01  -2.821878269645e+01   1.965487172827e+00 
   4801     2   38.645833972251   31.832393066227    1.375417102952    1.433750000000   9.609479990904e-01   7.003063758020e-01   1.287183118984e+00 
   2560     2   39.872393675145   34.879929846343    1.757498270430    1.863750000000   6.684944990557e-01   1.941611195449e+00   2.941114324145e+00 
   2677     2   37.432171800885   33.308684800915    3.978866094429    1.863750000000   1.818165062112e+00   5.173188944231e+00   1.456433882645e-02 
   4289     2   36.183206798072   35.387061721450    1.516934084056    1.433750000000  -2.827231430639e-17   0.000000000000e+00  -2.308609660032e-01 
   3599     2    1.624916294358   38.930843587850    1.627305459242    1.648750000000   6.958332034490e+00   2.555745532772e+00  -3.050645672367e+00 
   3272     2    1.617984996765   37.828994079265    4.691360867786    1.648750000000   6.103255381109e+00   5.720539449700e+00   9.459008461417e-01 
   3757     2    3.991934013213   39.832568161964    3.566432569145    1.541250000000  -5.143996785290e-01  -3.548687846775e-01  -1.171771014024e-01 
   6856     2    4.333004107434   38.734580874358    1.119022967195    1.111250000000  -1.316365190658e-17   0.000000000000e+00  -1.074893750243e-01 
   6200     2    4.330240594605   37.662006441399    5.398932729795    1.218750000000  -3.861228743335e-01   1.244866476627e+00  -8.163551561105e-01 
   2332     2    7.096048016238   39.895228474339    1.923814382912    1.971250000000   9.023350297779e+00   2.171865575656e-01   2.436364362482e+00 
   1710     2   10.191405305968   37.158449530435    2.088098241790    2.186250000000   2.621706278645e+00  -1.002592844210e+01   3.491352667101e+00 
   5677     2   13.150835223008   39.662132328283    4.349629131589    1.218750000000   2.568610635702e+00   9.702618098818e-01   4.059030805443e+00 
   7248     2   12.235489023916   37.676479322731    4.323527621091    1.003750000000   1.543732225429e+00   9.471947349666e-01   5.776383854158e-02 
   4199     2   16.441875442639   35.588621213492    1.428113842368    1.541250000000   1.100512516685e+00  -3.286324379151e+00  -1.290676868521e+00 
   3806     2   14.218673231251   38.004011940905    1.628396033775    1.541250000000  -3.512047138682e-17   0.000000000000e+00  -2.867804122076e-01 
   2685     2   17.498542681839   36.156580930694    4.469001348078    1.863750000000  -8.932598756728e+00  -7.838286041719e+00   2.567727908029e+00 
   5848     2   15.440677081506   39.084185169304    4.767874685141    1.218750000000  -5.267876063706e+00   1.683015402639e+00  -6.810980289049e+00 
   4737     2   20.783179021488   36.754567370116    1.350074541242    1.433750000000   1.662126548181e+00   1.004105177708e-02  -5.845384104177e-01 
   5940     2   24.377181943986   36.050410558456    3.861369444349    1.218750000000   1.472025838390e+00  -6.922660509590e-01   3.437084540107e-01 
   3583     2   23.735048706189   37.581472391052    1.564220618736    1.648750000000   2.596549751062e+00  -1.065914814128e+00   4.413216272369e-01 
    632     1   24.458874395105   39.516336359079    4.852587719849    2.328750000000  -1.129187893088e+01   2.468739151489e+00  -1.116450676018e+01 
   2234     2   27.332075900482   37.592387573656    1.971247661960    1.971250000000  -2.452006767007e-01  -5.987180349641e-02  -1.364627659950e-02 
   6226     2   27.989732861755   39.323064438622    4.569003395266    1.218750000000   6.992512829329e-01  -1.823384816057e-01   1.672837899544e-01 
   5300     2   30.675805951518   37.697206408518    1.331853812466    1.326250000000  -2.237779331363e-17   0.000000000000e+00  -1.827285494006e-01 