LIGGGHTS (Version LIGGGHTS-PUBLIC-FIBERS 3.8.0, compiled 2024-01-30-15:28:26 by jchits, git commit 9ac9b48460642a344aa2f18bbbb435c5a3e8fde6)
### Material Independent Properties
#variable particle_diameter             equal 0.0171    	                # particles diameter in meters VULCAN
variable particle_diameter             equal 0.0205    	                # particles diameter in meters C-65
#variable particle_diameter             equal 0.0228    	                # particles diameter in meters KB
variable bond_out_diameter             equal ${particle_diameter}    	# fiber outer diameter in meters
variable bond_out_diameter             equal 0.0205    	
variable bond_in_diameter              equal 0.0                        # fiber inner diameter in meters
variable bond_damp_type                equal 1                          # Use Yu Guo Damping
variable bond_damp_val                 equal 0.1      					# NA
variable fiber_contact_youngs_modulus  equal 0.185e6      				# Pa
variable bond_youngs_modulus           equal 0.185e6      				# Pa
variable particle_poissons_ratio       equal 0.3        			 	# NA
variable coef_res_pp                   equal 0.500      				# particle-particle coefficient of restitution
variable coef_res_pw                   equal 0.500      				# particle-wall coefficient of restitution
variable coef_res_ww                   equal 0.500      				# wall-wall coefficient of restitution
variable coef_fri_pp                   equal 0.500      				# particle-particle coefficient of friction
variable coef_fri_pw                   equal 0.500      				# particle-wall coefficient of friction
variable coef_fri_ww                   equal 0.500      				# wall-wall coefficient of friction


### Material Dependent Properties
variable bond_shear_modulus            equal ${bond_youngs_modulus}/(2.0*(1.0+${particle_poissons_ratio}))
variable bond_shear_modulus            equal 185000/(2.0*(1.0+${particle_poissons_ratio}))
variable bond_shear_modulus            equal 185000/(2.0*(1.0+0.3))
variable bond_out_per                  equal ${bond_out_diameter}/${particle_diameter}
variable bond_out_per                  equal 0.0205/${particle_diameter}
variable bond_out_per                  equal 0.0205/0.0205
variable bond_in_per                   equal ${bond_in_diameter}/${particle_diameter}
variable bond_in_per                   equal 0/${particle_diameter}
variable bond_in_per                   equal 0/0.0205

atom_style 	hybrid granular bond/gran n_bondtypes 1 bonds_per_atom 12
atom_modify	map array
boundary	f f f	#periodic in z
newton		off

communicate	single vel yes

units		micro

region		reg block -0.05 3.19 -0.05 3.19 -0.7 3.05 units box
create_box	2 reg
Created orthogonal box = (-0.05 -0.05 -0.7) to (3.19 3.19 3.05)
  2 by 2 by 3 MPI processor grid

#processors     2 2 1
neighbor	    0.01 bin
neigh_modify	delay 0


#Material properties required for new pair styles

fix 		m1 all property/global youngsModulus peratomtype 0.185e6 185e6
fix 		m2 all property/global poissonsRatio peratomtype 0.3 0.3
fix 		m3 all property/global coefficientRestitution peratomtypepair 2 0.1 0.1 0.1 0.1
fix 		m4 all property/global coefficientFriction peratomtypepair 2 0.5 0.5 0.5 0.5
fix 		m5 all property/global coefficientRollingFriction peratomtypepair 2 0.5 0.5 0.5 0.5

pair_style gran model hertz tangential history
bond_style gran
WARNING: Bond granular: This is a beta version - be careful! (../bond_gran.cpp:106)
pair_coeff  * *
bond_coeff 	1 ${bond_out_per} ${bond_in_per} ${bond_youngs_modulus} ${bond_shear_modulus} ${bond_damp_type} ${bond_damp_val} 1 1.0e32 1.0e32
bond_coeff 	1 1 ${bond_in_per} ${bond_youngs_modulus} ${bond_shear_modulus} ${bond_damp_type} ${bond_damp_val} 1 1.0e32 1.0e32
bond_coeff 	1 1 0 ${bond_youngs_modulus} ${bond_shear_modulus} ${bond_damp_type} ${bond_damp_val} 1 1.0e32 1.0e32
bond_coeff 	1 1 0 185000 ${bond_shear_modulus} ${bond_damp_type} ${bond_damp_val} 1 1.0e32 1.0e32
bond_coeff 	1 1 0 185000 71153.8461538462 ${bond_damp_type} ${bond_damp_val} 1 1.0e32 1.0e32
bond_coeff 	1 1 0 185000 71153.8461538462 1 ${bond_damp_val} 1 1.0e32 1.0e32
bond_coeff 	1 1 0 185000 71153.8461538462 1 0.1 1 1.0e32 1.0e32

timestep	0.00001

group ptc  type  1
0 atoms in group ptc
group gst  type  2
0 atoms in group gst

fix 	sinwa ptc mesh/surface file Part2.stl type 2 scale 0.001 curvature_tolerant yes
fix 	wall ptc wall/gran model hertz tangential history rolling_friction epsd2 mesh n_meshes 1 meshes sinwa
WARNING: 
	The contact model you specified is not located in any whitelist.
	Because of this the model will be run in an unoptimized version (increasing runtime by up to 20%).
	In order to optimize this model you have the following options:
		(i)  Run the genAutoExamplesWhitelist.sh script in your LIGGGHTS(R) source folder to automatically parse the input script
		(ii) Add the model combination by hand to your style_contact_model_user.whitelist that can be found in your LIGGGHTS(R) source folder
	If you perform one of the steps above LIGGGHTS(R) needs to be recompiled to generate the optimized code.

 (../contact_models.h:364)

fix     zwalls1  ptc wall/gran model hertz tangential history primitive type 1 zplane -0.7
fix     zwalls2  ptc wall/gran model hertz tangential history primitive type 1 zplane 3
fix     xwalls1  ptc wall/gran model hertz tangential history primitive type 1 xplane 0
fix     xwalls2  ptc wall/gran model hertz tangential history primitive type 1 xplane 3.14
fix     ywalls1  ptc wall/gran model hertz tangential history primitive type 1 yplane 0
fix     ywalls2  ptc wall/gran model hertz tangential history primitive type 1 yplane 3.14

region  bc block 0 3.14 0 3.14 0 2.9 units box
#fix	  pts1 all particletemplate/multiplespheres 67867967 atom_type 1 density constant 2500 nspheres 110 ntry 500000 spheres file Data/positions_Vulcan.txt scale 1 bonded yes
fix	  pts1 all particletemplate/multiplespheres 67867967 atom_type 1 density constant 2500 nspheres 110 ntry 500000 spheres file Data/positions_C-65.txt scale 1 bonded yes
Finished calculating properties of template
   mass = 1.251171e+00, radius of bounding sphere = 2.070033e-01, radius of equivalent sphere = 4.925263e-02
   center of mass = 0.000000e+00, 0.000000e+00, 0.000000e+00
   center of bounding sphere in global coords = -5.896564e-02, -1.464208e-02, -7.552388e-06
#fix	  pts1 all particletemplate/multiplespheres 67867967 atom_type 1 density constant 2500 nspheres 183 ntry 500000 spheres file Data/positions_KB.txt scale 1 bonded yes

fix   pdd1 ptc particledistribution/discrete 15485867 1 pts1 1.0
fix   ins ptc insert/pack seed 32452843 distributiontemplate pdd1 maxattempt 1000 insert_every 2000 												overlapcheck yes orientation random all_in yes 												vel constant 0.0 0.0 0.0 region bc particles_in_region 925 												ntry_mc 500000

fix     integr all nve/sphere

compute        ker  all   erotate/sphere                  # Compute the rotational kinetic energy of all particles
compute        frc  gst   reduce sum fz                   # Total pressure on ghost particles
variable       prs  equal  (c_frc)/(1000*3.14*3.14)    # Pressure in unit of MPa
# Print info to screen, include step, total atom number, kinetic nergy, compute_1(Rotational energy), volume
thermo_style    custom step atoms numbonds cpu cpuremain ke v_prs
thermo          10000                              # Print thermodynamics every 500 stimesteps
thermo_modify   lost ignore norm no
compute_modify	thermo_temp dynamic yes
WARNING: Changing thermo_temp compute object. This object is deprecated and will be removed in the future. (../compute.cpp:161)

dump			dmp all custom 100000 post_C65/dump*.liggghts id type x y z vx vy vz fx fy fz omegax omegay omegaz radius mass

variable bond_skin equal 1.00000001*${particle_diameter}
variable bond_skin equal 1.00000001*0.0205
run 1
Setting up run at Thu Jul 25 12:36:03 2024

WARNING: Fix mesh: Mesh contains highly skewed element, moving mesh (if used) will not parallelize well (../surface_mesh_I.h:657)
INFO: Particle insertion ins: inserting every 2000 steps
Memory usage per processor = 20.089 Mbytes
    Step    Atoms numbonds            CPU        CPULeft         KinEng            prs 
       0        0        0              0              0              0              0 
INFO: Particle insertion ins: inserted 925 particle templates (mass 1.157334e+03) at step 1
 - a total of 925 particle templates (mass 1.157334e+03) inserted so far.
       1   101750   306175     0.05237535              0   9.489462e-43              0 
Loop time of 0.0524185 on 12 procs for 1 steps with 101750 atoms, finish time Thu Jul 25 12:36:03 2024


Pair  time (%) = 0.000996148 (1.90038)
Bond  time (%) = 0.00243282 (4.64115)
Neigh time (%) = 0.0103042 (19.6576)
Comm  time (%) = 0.00220582 (4.20809)
Outpt time (%) = 0.00496073 (9.46371)
Other time (%) = 0.0315187 (60.1291)

Nlocal:    8479.17 ave 12870 max 3410 min
Histogram: 4 0 0 0 0 1 3 0 0 4
Nghost:    1.5 ave 3 max 0 min
Histogram: 4 0 0 2 0 0 2 0 0 4
Neighs:    25618.7 ave 38928 max 10297 min
Histogram: 4 0 0 0 0 1 3 0 0 4

Total # of neighbors = 307424
Ave neighs/atom = 3.02137
Ave special neighs/atom = 0
Neighbor list builds = 1
Dangerous builds = 0
fix bondcr all bond/create/gran 1 1 1 ${bond_skin} 1 12
fix bondcr all bond/create/gran 1 1 1 0.020500000205 1 12
run 1
Setting up run at Thu Jul 25 12:36:03 2024

Memory usage per processor = 28.2006 Mbytes
    Step    Atoms numbonds            CPU        CPULeft         KinEng            prs 
       1   101750   306175              0              0   9.489462e-43              0 
       2   101750   306175    0.007199153              0  8.4990015e-42              0 
Loop time of 0.00723473 on 12 procs for 1 steps with 101750 atoms, finish time Thu Jul 25 12:36:03 2024


Pair  time (%) = 0.00103092 (14.2496)
Bond  time (%) = 0.00260994 (36.0751)
Neigh time (%) = 0 (0)
Comm  time (%) = 7.61417e-06 (0.105245)
Outpt time (%) = 0.00223659 (30.9146)
Other time (%) = 0.00134967 (18.6555)

Nlocal:    8479.17 ave 12870 max 3410 min
Histogram: 4 0 0 0 0 1 3 0 0 4
Nghost:    1.5 ave 3 max 0 min
Histogram: 4 0 0 2 0 0 2 0 0 4
Neighs:    25618.7 ave 38928 max 10297 min
Histogram: 4 0 0 0 0 1 3 0 0 4

Total # of neighbors = 307424
Ave neighs/atom = 3.02137
Ave special neighs/atom = 0
Neighbor list builds = 0
Dangerous builds = 0
fix_modify bondcr every 0
unfix ins
run 1
Setting up run at Thu Jul 25 12:36:03 2024

Memory usage per processor = 28.2007 Mbytes
    Step    Atoms numbonds            CPU        CPULeft         KinEng            prs 
       2   101750   306175              0              0  8.4990015e-42              0 
       3   101750   306175    0.006436524              0  2.3493074e-41              0 
Loop time of 0.00646833 on 12 procs for 1 steps with 101750 atoms, finish time Thu Jul 25 12:36:03 2024


Pair  time (%) = 0.0010299 (15.9222)
Bond  time (%) = 0.00277881 (42.9602)
Neigh time (%) = 0 (0)
Comm  time (%) = 7.48508e-06 (0.115719)
Outpt time (%) = 0.00232689 (35.9736)
Other time (%) = 0.000325246 (5.02829)

Nlocal:    8479.17 ave 12870 max 3410 min
Histogram: 4 0 0 0 0 1 3 0 0 4
Nghost:    1.5 ave 3 max 0 min
Histogram: 4 0 0 2 0 0 2 0 0 4
Neighs:    25618.7 ave 38928 max 10297 min
Histogram: 4 0 0 0 0 1 3 0 0 4

Total # of neighbors = 307424
Ave neighs/atom = 3.02137
Ave special neighs/atom = 0
Neighbor list builds = 0
Dangerous builds = 0

region bc1 block 0 3.14 0 3.14 2.95 2.97   units box
lattice sc 0.02
Lattice spacing in x,y,z = 0.02 0.02 0.02
create_atoms 2 region bc1
Created 24964 atoms
group gst type 2
24964 atoms in group gst
set group gst density 10000 diameter 0.02
  24964 settings made for density
  24964 settings made for diameter
run			1
Setting up run at Thu Jul 25 12:36:03 2024

Memory usage per processor = 28.2959 Mbytes
    Step    Atoms numbonds            CPU        CPULeft         KinEng            prs 
       3   126714   306175              0              0  2.3493074e-41              0 
       4   126714   306175    0.006510208              0  1.3435026e-38              0 
Loop time of 0.00656176 on 12 procs for 1 steps with 126714 atoms, finish time Thu Jul 25 12:36:03 2024


Pair  time (%) = 0.00119689 (18.2404)
Bond  time (%) = 0.00278381 (42.4247)
Neigh time (%) = 0 (0)
Comm  time (%) = 3.49853e-05 (0.53317)
Outpt time (%) = 0.00215273 (32.8072)
Other time (%) = 0.000393344 (5.99448)

Nlocal:    10559.5 ave 15481 max 3410 min
Histogram: 4 0 0 0 0 0 0 4 0 4
Nghost:    108.167 ave 322 max 0 min
Histogram: 8 0 0 0 0 0 0 0 0 4
Neighs:    33939.7 ave 52887 max 10297 min
Histogram: 4 0 0 0 0 0 4 0 0 4

Total # of neighbors = 407276
Ave neighs/atom = 3.21414
Ave special neighs/atom = 0
Neighbor list builds = 0
Dangerous builds = 0

fix lin gst move linear 0.0 0.0 -0.2

label loop1
  run   10000
WARNING: One or more atoms are time integrated more than once (../modify.cpp:304)
Setting up run at Thu Jul 25 12:36:03 2024

Memory usage per processor = 28.5248 Mbytes
    Step    Atoms numbonds            CPU        CPULeft         KinEng            prs 
       4   126714   306175              0              0  1.3435026e-38              0 
   10000   126714   306175      61.673739    0.024679369      20.913792              0 
   10004   126714   306175      61.698617              0      20.913792              0 
Loop time of 61.6987 on 12 procs for 10000 steps with 126714 atoms, finish time Thu Jul 25 12:37:05 2024


Pair  time (%) = 11.7204 (18.9962)
Bond  time (%) = 27.7738 (45.0152)
Neigh time (%) = 0.0424884 (0.0688644)
Comm  time (%) = 0.292689 (0.474384)
Outpt time (%) = 0.00450619 (0.00730353)
Other time (%) = 21.8649 (35.4381)

Nlocal:    10559.5 ave 15481 max 3410 min
Histogram: 4 0 0 0 0 0 0 4 0 4
Nghost:    108.167 ave 322 max 0 min
Histogram: 8 0 0 0 0 0 0 0 0 4
Neighs:    33939.7 ave 52887 max 10297 min
Histogram: 4 0 0 0 0 0 4 0 0 4

Total # of neighbors = 407276
Ave neighs/atom = 3.21414
Ave special neighs/atom = 0
Neighbor list builds = 3
Dangerous builds = 0
  if "${prs} > 2" then "jump in.carbonbond loop2"
jump in.carbonbond loop1
  run   10000
WARNING: One or more atoms are time integrated more than once (../modify.cpp:304)
Setting up run at Thu Jul 25 12:37:05 2024

Memory usage per processor = 28.5248 Mbytes
    Step    Atoms numbonds            CPU        CPULeft         KinEng            prs 
   10004   126714   306175              0              0      20.913792              0 
   20000   126714   306175      61.527317    0.024620776      20.913792              0 
   20004   126714   306175      61.552278              0      20.913792              0 
Loop time of 61.5524 on 12 procs for 10000 steps with 126714 atoms, finish time Thu Jul 25 12:38:06 2024


Pair  time (%) = 11.7197 (19.0402)
Bond  time (%) = 27.7611 (45.1017)
Neigh time (%) = 0.0414947 (0.0674136)
Comm  time (%) = 0.289207 (0.469856)
Outpt time (%) = 0.00450078 (0.00731211)
Other time (%) = 21.7363 (35.3135)

Nlocal:    10559.5 ave 15481 max 3410 min
Histogram: 4 0 0 0 0 0 0 4 0 4
Nghost:    108.167 ave 322 max 0 min
Histogram: 8 0 0 0 0 0 0 0 0 4
Neighs:    33939.7 ave 52887 max 10297 min
Histogram: 4 0 0 0 0 0 4 0 0 4

Total # of neighbors = 407276
Ave neighs/atom = 3.21414
Ave special neighs/atom = 0
Neighbor list builds = 3
Dangerous builds = 0
  if "${prs} > 2" then "jump in.carbonbond loop2"
jump in.carbonbond loop1
  run   10000
WARNING: One or more atoms are time integrated more than once (../modify.cpp:304)
Setting up run at Thu Jul 25 12:38:06 2024

Memory usage per processor = 28.5248 Mbytes
    Step    Atoms numbonds            CPU        CPULeft         KinEng            prs 
   20004   126714   306175              0              0      20.913792              0 
   30000   126714   306175      61.407523     0.02457284      20.913792              0 
   30004   126714   306175      61.432386              0      20.913792              0 
Loop time of 61.4325 on 12 procs for 10000 steps with 126714 atoms, finish time Thu Jul 25 12:39:08 2024


Pair  time (%) = 11.6944 (19.0362)
Bond  time (%) = 27.7462 (45.1653)
Neigh time (%) = 0.0402762 (0.0655617)
Comm  time (%) = 0.281499 (0.458226)
Outpt time (%) = 0.00452405 (0.00736427)
Other time (%) = 21.6656 (35.2673)

Nlocal:    10559.5 ave 15481 max 3410 min
Histogram: 4 0 0 0 0 0 0 4 0 4
Nghost:    108.167 ave 322 max 0 min
Histogram: 8 0 0 0 0 0 0 0 0 4
Neighs:    33939.8 ave 52887 max 10297 min
Histogram: 4 0 0 0 0 0 4 0 0 4

Total # of neighbors = 407277
Ave neighs/atom = 3.21414
Ave special neighs/atom = 0
Neighbor list builds = 3
Dangerous builds = 0
  if "${prs} > 2" then "jump in.carbonbond loop2"
jump in.carbonbond loop1
  run   10000
WARNING: One or more atoms are time integrated more than once (../modify.cpp:304)
Setting up run at Thu Jul 25 12:39:08 2024

Memory usage per processor = 28.5248 Mbytes
    Step    Atoms numbonds            CPU        CPULeft         KinEng            prs 
   30004   126714   306175              0              0      20.913792              0 
   40000   126714   306175      61.442021    0.024586644      20.977105   0.0011623843 
   40004   126714   306175      61.466903              0       20.97718   0.0011628458 
Loop time of 61.467 on 12 procs for 10000 steps with 126714 atoms, finish time Thu Jul 25 12:40:09 2024


Pair  time (%) = 11.6884 (19.0158)
Bond  time (%) = 27.7466 (45.1407)
Neigh time (%) = 0.0541071 (0.0880262)
Comm  time (%) = 0.290137 (0.472021)
Outpt time (%) = 0.00448635 (0.0072988)
Other time (%) = 21.6831 (35.2761)

Nlocal:    10559.5 ave 15481 max 3410 min
Histogram: 4 0 0 0 0 0 0 4 0 4
Nghost:    108.167 ave 322 max 0 min
Histogram: 8 0 0 0 0 0 0 0 0 4
Neighs:    33943.8 ave 52896 max 10297 min
Histogram: 4 0 0 0 0 0 4 0 0 4

Total # of neighbors = 407325
Ave neighs/atom = 3.21452
Ave special neighs/atom = 0
Neighbor list builds = 4
Dangerous builds = 0
  if "${prs} > 2" then "jump in.carbonbond loop2"
jump in.carbonbond loop1
  run   10000
WARNING: One or more atoms are time integrated more than once (../modify.cpp:304)
Setting up run at Thu Jul 25 12:40:09 2024

Memory usage per processor = 28.5248 Mbytes
    Step    Atoms numbonds            CPU        CPULeft         KinEng            prs 
   40004   126714   306175              0              0       20.97718   0.0011640718 
   50000   126714   306175      61.648388    0.024669225      21.150152   0.0012988356 
   50004   126714   306175      61.673323              0       21.15025   0.0012986151 
Loop time of 61.6734 on 12 procs for 10000 steps with 126714 atoms, finish time Thu Jul 25 12:41:11 2024


Pair  time (%) = 11.6775 (18.9344)
Bond  time (%) = 27.7395 (44.9781)
Neigh time (%) = 0.118758 (0.19256)
Comm  time (%) = 0.337265 (0.546857)
Outpt time (%) = 0.00432439 (0.00701176)
Other time (%) = 21.796 (35.3411)

Nlocal:    10559.5 ave 15481 max 3410 min
Histogram: 4 0 0 0 0 0 0 4 0 4
Nghost:    108.167 ave 322 max 0 min
Histogram: 8 0 0 0 0 0 0 0 0 4
Neighs:    33948.2 ave 52920 max 10297 min
Histogram: 4 0 0 0 0 0 4 0 0 4

Total # of neighbors = 407379
Ave neighs/atom = 3.21495
Ave special neighs/atom = 0
Neighbor list builds = 9
Dangerous builds = 0
  if "${prs} > 2" then "jump in.carbonbond loop2"
jump in.carbonbond loop1
  run   10000
WARNING: One or more atoms are time integrated more than once (../modify.cpp:304)
Setting up run at Thu Jul 25 12:41:11 2024

Memory usage per processor = 28.5248 Mbytes
    Step    Atoms numbonds            CPU        CPULeft         KinEng            prs 
   50004   126714   306175              0              0       21.15025   0.0012980254 
   60000   126714   306175      61.607443     0.02465284      21.440597   0.0026802804 
   60004   126714   306175      61.632395              0      21.440733   0.0026797599 
Loop time of 61.6325 on 12 procs for 10000 steps with 126714 atoms, finish time Thu Jul 25 12:42:13 2024


Pair  time (%) = 11.6332 (18.8752)
Bond  time (%) = 27.7208 (44.9776)
Neigh time (%) = 0.118327 (0.191988)
Comm  time (%) = 0.340271 (0.552098)
Outpt time (%) = 0.00451971 (0.00733333)
Other time (%) = 21.8153 (35.3958)

Nlocal:    10559.5 ave 15481 max 3410 min
Histogram: 4 0 0 0 0 0 0 4 0 4
Nghost:    108.167 ave 322 max 0 min
Histogram: 8 0 0 0 0 0 0 0 0 4
Neighs:    33958 ave 52930 max 10297 min
Histogram: 4 0 0 0 0 0 4 0 0 4

Total # of neighbors = 407496
Ave neighs/atom = 3.21587
Ave special neighs/atom = 0
Neighbor list builds = 9
Dangerous builds = 0
  if "${prs} > 2" then "jump in.carbonbond loop2"
jump in.carbonbond loop1
  run   10000
WARNING: One or more atoms are time integrated more than once (../modify.cpp:304)
Setting up run at Thu Jul 25 12:42:13 2024

Memory usage per processor = 28.5248 Mbytes
    Step    Atoms numbonds            CPU        CPULeft         KinEng            prs 
   60004   126714   306175              0              0      21.440733   0.0026785476 
   70000   126714   306175       61.67194    0.024678649      21.888716   0.0034348106 
   70004   126714   306175      61.696858              0       21.88892    0.003434188 
Loop time of 61.6969 on 12 procs for 10000 steps with 126714 atoms, finish time Thu Jul 25 12:43:15 2024


Pair  time (%) = 11.6619 (18.902)
Bond  time (%) = 27.7216 (44.9319)
Neigh time (%) = 0.131609 (0.213315)
Comm  time (%) = 0.347328 (0.562958)
Outpt time (%) = 0.00430757 (0.00698182)
Other time (%) = 21.8301 (35.3828)

Nlocal:    10559.5 ave 15481 max 3410 min
Histogram: 4 0 0 0 0 0 0 4 0 4
Nghost:    108.167 ave 322 max 0 min
Histogram: 8 0 0 0 0 0 0 0 0 4
Neighs:    33966.3 ave 52969 max 10297 min
Histogram: 4 0 0 0 0 0 4 0 0 4

Total # of neighbors = 407596
Ave neighs/atom = 3.21666
Ave special neighs/atom = 0
Neighbor list builds = 10
Dangerous builds = 0
  if "${prs} > 2" then "jump in.carbonbond loop2"
jump in.carbonbond loop1
  run   10000
WARNING: One or more atoms are time integrated more than once (../modify.cpp:304)
Setting up run at Thu Jul 25 12:43:15 2024

Memory usage per processor = 28.5248 Mbytes
    Step    Atoms numbonds            CPU        CPULeft         KinEng            prs 
   70004   126714   306175              0              0       21.88892   0.0034232058 
   80000   126714   306175      61.718285    0.024697195      22.294389    0.003184445 
   80004   126714   306175      61.743156              0      22.294518   0.0031847229 
Loop time of 61.7432 on 12 procs for 10000 steps with 126714 atoms, finish time Thu Jul 25 12:44:16 2024


Pair  time (%) = 11.6748 (18.9086)
Bond  time (%) = 27.7311 (44.9135)
Neigh time (%) = 0.132605 (0.214768)
Comm  time (%) = 0.370986 (0.600852)
Outpt time (%) = 0.00427803 (0.00692874)
Other time (%) = 21.8295 (35.3553)

Nlocal:    10559.5 ave 15481 max 3410 min
Histogram: 4 0 0 0 0 0 0 4 0 4
Nghost:    108.167 ave 322 max 0 min
Histogram: 8 0 0 0 0 0 0 0 0 4
Neighs:    33976.4 ave 53018 max 10297 min
Histogram: 4 0 0 0 0 0 4 0 0 4

Total # of neighbors = 407717
Ave neighs/atom = 3.21762
Ave special neighs/atom = 0
Neighbor list builds = 10
Dangerous builds = 0
  if "${prs} > 2" then "jump in.carbonbond loop2"
jump in.carbonbond loop1
  run   10000
WARNING: One or more atoms are time integrated more than once (../modify.cpp:304)
Setting up run at Thu Jul 25 12:44:17 2024

Memory usage per processor = 28.5248 Mbytes
    Step    Atoms numbonds            CPU        CPULeft         KinEng            prs 
   80004   126714   306175              0              0      22.294518   0.0031802701 
   90000   126714   306175      61.760198    0.024713967      22.765719   0.0049098185 
   90004   126714   306175      61.785121              0      22.765947   0.0049101153 
Loop time of 61.7852 on 12 procs for 10000 steps with 126714 atoms, finish time Thu Jul 25 12:45:18 2024


Pair  time (%) = 11.7312 (18.9871)
Bond  time (%) = 27.7252 (44.8735)
Neigh time (%) = 0.132038 (0.213705)
Comm  time (%) = 0.363239 (0.587906)
Outpt time (%) = 0.00426827 (0.00690823)
Other time (%) = 21.8292 (35.3308)

Nlocal:    10559.5 ave 15481 max 3410 min
Histogram: 4 0 0 0 0 0 0 4 0 4
Nghost:    108.167 ave 322 max 0 min
Histogram: 8 0 0 0 0 0 0 0 0 4
Neighs:    33995.5 ave 53040 max 10297 min
Histogram: 4 0 0 0 0 0 4 0 0 4

Total # of neighbors = 407946
Ave neighs/atom = 3.21942
Ave special neighs/atom = 0
Neighbor list builds = 10
Dangerous builds = 0
  if "${prs} > 2" then "jump in.carbonbond loop2"
jump in.carbonbond loop1
  run   10000
WARNING: One or more atoms are time integrated more than once (../modify.cpp:304)
Setting up run at Thu Jul 25 12:45:18 2024

Memory usage per processor = 28.5248 Mbytes
    Step    Atoms numbonds            CPU        CPULeft         KinEng            prs 
   90004   126714   306175              0              0      22.765947   0.0049011964 
  100000   126714   306175      62.075093    0.024839975      23.433079   0.0045459474 
  100004   126714   306175      62.102893              0      23.433318   0.0045451089 
Loop time of 62.103 on 12 procs for 10000 steps with 126714 atoms, finish time Thu Jul 25 12:46:21 2024


Pair  time (%) = 11.7465 (18.9146)
Bond  time (%) = 27.7272 (44.6472)
Neigh time (%) = 0.132579 (0.213483)
Comm  time (%) = 0.360607 (0.580659)
Outpt time (%) = 0.289687 (0.466462)
Other time (%) = 21.8464 (35.1776)

Nlocal:    10559.5 ave 15481 max 3410 min
Histogram: 4 0 0 0 0 0 0 4 0 4
Nghost:    108.167 ave 322 max 0 min
Histogram: 8 0 0 0 0 0 0 0 0 4
Neighs:    34011.7 ave 53098 max 10297 min
Histogram: 4 0 0 0 0 0 4 0 0 4

Total # of neighbors = 408140
Ave neighs/atom = 3.22095
Ave special neighs/atom = 0
Neighbor list builds = 10
Dangerous builds = 0
  if "${prs} > 2" then "jump in.carbonbond loop2"
jump in.carbonbond loop1
  run   10000
WARNING: One or more atoms are time integrated more than once (../modify.cpp:304)
Setting up run at Thu Jul 25 12:46:21 2024

Memory usage per processor = 32.5849 Mbytes
    Step    Atoms numbonds            CPU        CPULeft         KinEng            prs 
  100004   126714   306175              0              0      23.433318   0.0045304974 
  110000   126714   306175      61.670672    0.024678142      23.969525   0.0044982039 
  110004   126714   306175      61.696002              0      23.969687   0.0044982662 
Loop time of 61.6961 on 12 procs for 10000 steps with 126714 atoms, finish time Thu Jul 25 12:47:22 2024


Pair  time (%) = 11.792 (19.1131)
Bond  time (%) = 27.7178 (44.9264)
Neigh time (%) = 0.145166 (0.235292)
Comm  time (%) = 0.37624 (0.609828)
Outpt time (%) = 0.00451692 (0.00732124)
Other time (%) = 21.6603 (35.1081)

Nlocal:    10559.5 ave 15481 max 3410 min
Histogram: 4 0 0 0 0 0 0 4 0 4
Nghost:    108.25 ave 323 max 0 min
Histogram: 8 0 0 0 0 0 0 0 0 4
Neighs:    34050.2 ave 53208 max 10297 min
Histogram: 4 0 0 0 0 0 4 0 0 4

Total # of neighbors = 408603
Ave neighs/atom = 3.22461
Ave special neighs/atom = 0
Neighbor list builds = 11
Dangerous builds = 0
  if "${prs} > 2" then "jump in.carbonbond loop2"
jump in.carbonbond loop1
  run   10000
WARNING: One or more atoms are time integrated more than once (../modify.cpp:304)
Setting up run at Thu Jul 25 12:47:22 2024

Memory usage per processor = 32.5849 Mbytes
    Step    Atoms numbonds            CPU        CPULeft         KinEng            prs 
  110004   126714   306175              0              0      23.969687   0.0044743605 
  120000   126714   306175      61.614315     0.02465559      24.682558   0.0052978227 
  120004   126714   306175      61.639223              0      24.682871    0.005296191 
Loop time of 61.6393 on 12 procs for 10000 steps with 126714 atoms, finish time Thu Jul 25 12:48:24 2024


Pair  time (%) = 11.8109 (19.1614)
Bond  time (%) = 27.7171 (44.9665)
Neigh time (%) = 0.132159 (0.214406)
Comm  time (%) = 0.383486 (0.622146)
Outpt time (%) = 0.00445861 (0.00723338)
Other time (%) = 21.5912 (35.0283)

Nlocal:    10559.5 ave 15481 max 3410 min
Histogram: 4 0 0 0 0 0 0 4 0 4
Nghost:    108.25 ave 323 max 0 min
Histogram: 8 0 0 0 0 0 0 0 0 4
Neighs:    34082.6 ave 53276 max 10297 min
Histogram: 4 0 0 0 0 0 4 0 0 4

Total # of neighbors = 408991
Ave neighs/atom = 3.22767
Ave special neighs/atom = 0
Neighbor list builds = 10
Dangerous builds = 0
  if "${prs} > 2" then "jump in.carbonbond loop2"
jump in.carbonbond loop1
  run   10000
WARNING: One or more atoms are time integrated more than once (../modify.cpp:304)
Setting up run at Thu Jul 25 12:48:24 2024

Memory usage per processor = 32.5849 Mbytes
    Step    Atoms numbonds            CPU        CPULeft         KinEng            prs 
  120004   126714   306175              0              0      24.682871   0.0052981598 
  130000   126714   306175      61.611429    0.024654435      25.346985   0.0041879144 
  130004   126714   306175      61.636322              0      25.347175   0.0041852077 
Loop time of 61.6364 on 12 procs for 10000 steps with 126714 atoms, finish time Thu Jul 25 12:49:26 2024


Pair  time (%) = 11.8381 (19.2063)
Bond  time (%) = 27.7157 (44.9664)
Neigh time (%) = 0.144757 (0.234857)
Comm  time (%) = 0.376079 (0.610158)
Outpt time (%) = 0.00425581 (0.00690471)
Other time (%) = 21.5576 (34.9754)

Nlocal:    10559.5 ave 15481 max 3410 min
Histogram: 4 0 0 0 0 0 0 4 0 4
Nghost:    108.333 ave 324 max 0 min
Histogram: 8 0 0 0 0 0 0 0 0 4
Neighs:    34086 ave 53318 max 10297 min
Histogram: 4 0 0 0 0 0 4 0 0 4

Total # of neighbors = 409032
Ave neighs/atom = 3.22799
Ave special neighs/atom = 0
Neighbor list builds = 11
Dangerous builds = 0
  if "${prs} > 2" then "jump in.carbonbond loop2"
jump in.carbonbond loop1
  run   10000
WARNING: One or more atoms are time integrated more than once (../modify.cpp:304)
Setting up run at Thu Jul 25 12:49:26 2024

Memory usage per processor = 32.5849 Mbytes
    Step    Atoms numbonds            CPU        CPULeft         KinEng            prs 
  130004   126714   306175              0              0      25.347175   0.0041706251 
  140000   126714   306175      61.640523    0.024666077      25.719431    0.003925823 
  140004   126714   306175      61.665449              0      25.719563   0.0039245618 
Loop time of 61.6655 on 12 procs for 10000 steps with 126714 atoms, finish time Thu Jul 25 12:50:28 2024


Pair  time (%) = 11.8503 (19.217)
Bond  time (%) = 27.7197 (44.9517)
Neigh time (%) = 0.131986 (0.214036)
Comm  time (%) = 0.384977 (0.624298)
Outpt time (%) = 0.00428196 (0.00694384)
Other time (%) = 21.5743 (34.986)

Nlocal:    10559.5 ave 15481 max 3410 min
Histogram: 4 0 0 0 0 0 0 4 0 4
Nghost:    108.25 ave 323 max 0 min
Histogram: 8 0 0 0 0 0 0 0 0 4
Neighs:    34092 ave 53323 max 10297 min
Histogram: 4 0 0 0 0 0 4 0 0 4

Total # of neighbors = 409104
Ave neighs/atom = 3.22856
Ave special neighs/atom = 0
Neighbor list builds = 10
Dangerous builds = 0
  if "${prs} > 2" then "jump in.carbonbond loop2"
jump in.carbonbond loop1
  run   10000
WARNING: One or more atoms are time integrated more than once (../modify.cpp:304)
Setting up run at Thu Jul 25 12:50:28 2024

Memory usage per processor = 32.5849 Mbytes
    Step    Atoms numbonds            CPU        CPULeft         KinEng            prs 
  140004   126714   306175              0              0      25.719563   0.0039182671 
  150000   126714   306175      61.579625    0.024641709       26.00596   0.0030929887 
  150004   126714   306175      61.604586              0      26.006063   0.0030935302 
Loop time of 61.6047 on 12 procs for 10000 steps with 126714 atoms, finish time Thu Jul 25 12:51:29 2024


Pair  time (%) = 11.8524 (19.2394)
Bond  time (%) = 27.7178 (44.993)
Neigh time (%) = 0.131669 (0.213732)
Comm  time (%) = 0.378902 (0.615055)
Outpt time (%) = 0.0045174 (0.00733288)
Other time (%) = 21.5194 (34.9315)

Nlocal:    10559.5 ave 15481 max 3410 min
Histogram: 4 0 0 0 0 0 0 4 0 4
Nghost:    108.333 ave 323 max 0 min
Histogram: 8 0 0 0 0 0 0 0 0 4
Neighs:    34096.6 ave 53332 max 10297 min
Histogram: 4 0 0 0 0 0 4 0 0 4

Total # of neighbors = 409159
Ave neighs/atom = 3.229
Ave special neighs/atom = 0
Neighbor list builds = 10
Dangerous builds = 0
  if "${prs} > 2" then "jump in.carbonbond loop2"
jump in.carbonbond loop1
  run   10000
WARNING: One or more atoms are time integrated more than once (../modify.cpp:304)
Setting up run at Thu Jul 25 12:51:29 2024

Memory usage per processor = 32.5849 Mbytes
    Step    Atoms numbonds            CPU        CPULeft         KinEng            prs 
  150004   126714   306175              0              0      26.006063   0.0030900369 
  160000   126714   306175      61.648004    0.024669071      26.306793    0.003092314 
  160004   126714   306175      61.672895              0      26.306853    0.003092843 
Loop time of 61.673 on 12 procs for 10000 steps with 126714 atoms, finish time Thu Jul 25 12:52:31 2024


Pair  time (%) = 11.8727 (19.251)
Bond  time (%) = 27.7185 (44.9443)
Neigh time (%) = 0.144764 (0.234728)
Comm  time (%) = 0.383996 (0.622633)
Outpt time (%) = 0.00424022 (0.00687534)
Other time (%) = 21.5488 (34.9404)

Nlocal:    10559.5 ave 15481 max 3410 min
Histogram: 4 0 0 0 0 0 0 4 0 4
Nghost:    108.833 ave 324 max 0 min
Histogram: 8 0 0 0 0 0 0 0 0 4
Neighs:    34115.1 ave 53375 max 10297 min
Histogram: 4 0 0 0 0 0 4 0 0 4

Total # of neighbors = 409381
Ave neighs/atom = 3.23075
Ave special neighs/atom = 0
Neighbor list builds = 11
Dangerous builds = 0
  if "${prs} > 2" then "jump in.carbonbond loop2"
jump in.carbonbond loop1
  run   10000
WARNING: One or more atoms are time integrated more than once (../modify.cpp:304)
Setting up run at Thu Jul 25 12:52:31 2024

Memory usage per processor = 32.5849 Mbytes
    Step    Atoms numbonds            CPU        CPULeft         KinEng            prs 
  160004   126714   306175              0              0      26.306853   0.0030926912 
  170000   126714   306175      61.641579      0.0246665      26.614267    0.004109722 
  170004   126714   306175      61.666483              0      26.614454   0.0041102871 
Loop time of 61.6666 on 12 procs for 10000 steps with 126714 atoms, finish time Thu Jul 25 12:53:33 2024


Pair  time (%) = 11.9198 (19.3294)
Bond  time (%) = 27.7307 (44.9687)
Neigh time (%) = 0.132196 (0.214373)
Comm  time (%) = 0.390475 (0.633203)
Outpt time (%) = 0.00433852 (0.00703545)
Other time (%) = 21.4891 (34.8472)

Nlocal:    10559.5 ave 15481 max 3410 min
Histogram: 4 0 0 0 0 0 0 4 0 4
Nghost:    109.833 ave 324 max 0 min
Histogram: 8 0 0 0 0 0 0 0 0 4
Neighs:    34129.2 ave 53385 max 10297 min
Histogram: 4 0 0 0 0 0 4 0 0 4

Total # of neighbors = 409550
Ave neighs/atom = 3.23208
Ave special neighs/atom = 0
Neighbor list builds = 10
Dangerous builds = 0
  if "${prs} > 2" then "jump in.carbonbond loop2"
jump in.carbonbond loop1
  run   10000
WARNING: One or more atoms are time integrated more than once (../modify.cpp:304)
Setting up run at Thu Jul 25 12:53:33 2024

Memory usage per processor = 32.5849 Mbytes
    Step    Atoms numbonds            CPU        CPULeft         KinEng            prs 
  170004   126714   306175              0              0      26.614454   0.0041093591 
  180000   126714   306175       61.86797    0.024757092      26.854397   0.0035521966 
  180004   126714   306175      61.892868              0      26.854515   0.0035524952 
Loop time of 61.8929 on 12 procs for 10000 steps with 126714 atoms, finish time Thu Jul 25 12:54:35 2024


Pair  time (%) = 11.965 (19.3317)
Bond  time (%) = 27.7361 (44.8131)
Neigh time (%) = 0.133 (0.214888)
Comm  time (%) = 0.448781 (0.725092)
Outpt time (%) = 0.00423004 (0.00683444)
Other time (%) = 21.6058 (34.9084)

Nlocal:    10559.5 ave 15481 max 3410 min
Histogram: 4 0 0 0 0 0 0 4 0 4
Nghost:    110.75 ave 329 max 0 min
Histogram: 8 0 0 0 0 0 0 0 0 4
Neighs:    34145.6 ave 53456 max 10297 min
Histogram: 4 0 0 0 0 0 4 0 0 4

Total # of neighbors = 409747
Ave neighs/atom = 3.23364
Ave special neighs/atom = 0
Neighbor list builds = 10
Dangerous builds = 0
  if "${prs} > 2" then "jump in.carbonbond loop2"
jump in.carbonbond loop1
  run   10000
WARNING: One or more atoms are time integrated more than once (../modify.cpp:304)
Setting up run at Thu Jul 25 12:54:35 2024

Memory usage per processor = 32.5849 Mbytes
    Step    Atoms numbonds            CPU        CPULeft         KinEng            prs 
  180004   126714   306175              0              0      26.854515   0.0035363405 
  190000   126714   306175      61.907748     0.02477301      27.330092   0.0040787544 
  190004   126714   306175      61.932629              0      27.330252   0.0040795469 
Loop time of 61.9327 on 12 procs for 10000 steps with 126714 atoms, finish time Thu Jul 25 12:55:37 2024


Pair  time (%) = 11.9856 (19.3526)
Bond  time (%) = 27.7343 (44.7814)
Neigh time (%) = 0.132253 (0.213543)
Comm  time (%) = 0.43982 (0.710158)
Outpt time (%) = 0.00417384 (0.00673931)
Other time (%) = 21.6365 (34.9356)

Nlocal:    10559.5 ave 15481 max 3410 min
Histogram: 4 0 0 0 0 0 0 4 0 4
Nghost:    112.583 ave 339 max 0 min
Histogram: 8 0 0 0 0 0 0 0 0 4
Neighs:    34174.2 ave 53489 max 10297 min
Histogram: 4 0 0 0 0 0 4 0 0 4

Total # of neighbors = 410091
Ave neighs/atom = 3.23635
Ave special neighs/atom = 0
Neighbor list builds = 10
Dangerous builds = 0
  if "${prs} > 2" then "jump in.carbonbond loop2"
jump in.carbonbond loop1
  run   10000
WARNING: One or more atoms are time integrated more than once (../modify.cpp:304)
Setting up run at Thu Jul 25 12:55:37 2024

Memory usage per processor = 32.5849 Mbytes
    Step    Atoms numbonds            CPU        CPULeft         KinEng            prs 
  190004   126714   306175              0              0      27.330252   0.0040660845 
  200000   126714   306175      62.135022    0.024863956       27.75026   0.0051342197 
  200004   126714   306175      62.160285              0      27.750428   0.0051359769 
Loop time of 62.1603 on 12 procs for 10000 steps with 126714 atoms, finish time Thu Jul 25 12:56:39 2024


Pair  time (%) = 12.0312 (19.3551)
Bond  time (%) = 27.7498 (44.6422)
Neigh time (%) = 0.133502 (0.21477)
Comm  time (%) = 0.475477 (0.76492)
Outpt time (%) = 0.0718124 (0.115528)
Other time (%) = 21.6986 (34.9074)

Nlocal:    10559.5 ave 15481 max 3410 min
Histogram: 4 0 0 0 0 0 0 4 0 4
Nghost:    114.167 ave 344 max 0 min
Histogram: 8 0 0 0 0 0 0 0 0 4
Neighs:    34205 ave 53635 max 10297 min
Histogram: 4 0 0 0 0 0 4 0 0 4

Total # of neighbors = 410460
Ave neighs/atom = 3.23926
Ave special neighs/atom = 0
Neighbor list builds = 10
Dangerous builds = 0
  if "${prs} > 2" then "jump in.carbonbond loop2"
jump in.carbonbond loop1
  run   10000
WARNING: One or more atoms are time integrated more than once (../modify.cpp:304)
Setting up run at Thu Jul 25 12:56:39 2024

Memory usage per processor = 32.5877 Mbytes
    Step    Atoms numbonds            CPU        CPULeft         KinEng            prs 
  200004   126714   306175              0              0      27.750428   0.0051317628 
  210000   126714   306175      61.980194       0.024802      28.213982   0.0044847364 
  210004   126714   306175      62.005379              0      28.214187    0.004484259 
Loop time of 62.0055 on 12 procs for 10000 steps with 126714 atoms, finish time Thu Jul 25 12:57:41 2024


Pair  time (%) = 12.013 (19.3742)
Bond  time (%) = 27.7457 (44.7472)
Neigh time (%) = 0.13312 (0.214691)
Comm  time (%) = 0.477321 (0.769805)
Outpt time (%) = 0.00431729 (0.00696275)
Other time (%) = 21.632 (34.8872)

Nlocal:    10559.5 ave 15481 max 3410 min
Histogram: 4 0 0 0 0 0 0 4 0 4
Nghost:    115.583 ave 352 max 0 min
Histogram: 8 0 0 0 0 0 0 0 0 4
Neighs:    34216.7 ave 53742 max 10297 min
Histogram: 4 0 0 0 0 0 4 0 0 4

Total # of neighbors = 410600
Ave neighs/atom = 3.24037
Ave special neighs/atom = 0
Neighbor list builds = 10
Dangerous builds = 0
  if "${prs} > 2" then "jump in.carbonbond loop2"
jump in.carbonbond loop1
  run   10000
WARNING: One or more atoms are time integrated more than once (../modify.cpp:304)
Setting up run at Thu Jul 25 12:57:41 2024

Memory usage per processor = 32.5877 Mbytes
    Step    Atoms numbonds            CPU        CPULeft         KinEng            prs 
  210004   126714   306175              0              0      28.214187   0.0044760774 
  220000   126714   306175      61.854964    0.024751888      28.904055    0.004288931 
  220004   126714   306175      61.879939              0      28.904268   0.0042876351 
Loop time of 61.88 on 12 procs for 10000 steps with 126714 atoms, finish time Thu Jul 25 12:58:43 2024


Pair  time (%) = 11.9995 (19.3916)
Bond  time (%) = 27.7341 (44.8191)
Neigh time (%) = 0.119622 (0.193312)
Comm  time (%) = 0.451399 (0.729474)
Outpt time (%) = 0.00448321 (0.007245)
Other time (%) = 21.5709 (34.8593)

Nlocal:    10559.5 ave 15481 max 3410 min
Histogram: 4 0 0 0 0 0 0 4 0 4
Nghost:    118 ave 361 max 0 min
Histogram: 8 0 0 0 0 0 0 0 2 2
Neighs:    34211.6 ave 53652 max 10297 min
Histogram: 4 0 0 0 0 0 4 0 0 4

Total # of neighbors = 410539
Ave neighs/atom = 3.23989
Ave special neighs/atom = 0
Neighbor list builds = 9
Dangerous builds = 0
  if "${prs} > 2" then "jump in.carbonbond loop2"
jump in.carbonbond loop1
  run   10000
WARNING: One or more atoms are time integrated more than once (../modify.cpp:304)
Setting up run at Thu Jul 25 12:58:43 2024

Memory usage per processor = 32.5877 Mbytes
    Step    Atoms numbonds            CPU        CPULeft         KinEng            prs 
  220004   126714   306175              0              0      28.904268   0.0042793751 
  230000   126714   306175      62.039421      0.0248257      29.363951   0.0037254913 
  230004   126714   306175      62.064475              0      29.364161   0.0037252182 
Loop time of 62.0645 on 12 procs for 10000 steps with 126714 atoms, finish time Thu Jul 25 12:59:45 2024


Pair  time (%) = 11.9884 (19.316)
Bond  time (%) = 27.7372 (44.6909)
Neigh time (%) = 0.132327 (0.213209)
Comm  time (%) = 0.457963 (0.737882)
Outpt time (%) = 0.00436174 (0.00702775)
Other time (%) = 21.7443 (35.035)

Nlocal:    10559.5 ave 15479 max 3410 min
Histogram: 4 0 0 0 0 0 0 4 0 4
Nghost:    121.833 ave 364 max 0 min
Histogram: 7 1 0 0 0 0 0 0 1 3
Neighs:    34205.4 ave 53562 max 10297 min
Histogram: 4 0 0 0 0 0 4 0 0 4

Total # of neighbors = 410465
Ave neighs/atom = 3.2393
Ave special neighs/atom = 0
Neighbor list builds = 10
Dangerous builds = 0
  if "${prs} > 2" then "jump in.carbonbond loop2"
jump in.carbonbond loop1
  run   10000
WARNING: One or more atoms are time integrated more than once (../modify.cpp:304)
Setting up run at Thu Jul 25 12:59:45 2024

Memory usage per processor = 32.5877 Mbytes
    Step    Atoms numbonds            CPU        CPULeft         KinEng            prs 
  230004   126714   306175              0              0      29.364161   0.0037270872 
  240000   126714   306175       61.98441    0.024803687      29.811243   0.0032621544 
  240004   126714   306175      62.009382              0      29.811415   0.0032610238 
Loop time of 62.0095 on 12 procs for 10000 steps with 126714 atoms, finish time Thu Jul 25 13:00:47 2024


Pair  time (%) = 11.9464 (19.2654)
Bond  time (%) = 27.7237 (44.7088)
Neigh time (%) = 0.158449 (0.255524)
Comm  time (%) = 0.4932 (0.795363)
Outpt time (%) = 0.00434715 (0.00701047)
Other time (%) = 21.6834 (34.9679)

Nlocal:    10559.5 ave 15477 max 3410 min
Histogram: 4 0 0 0 0 0 0 4 0 4
Nghost:    130.083 ave 370 max 0 min
Histogram: 6 2 0 0 0 0 0 0 1 3
Neighs:    34189.9 ave 53501 max 10297 min
Histogram: 4 0 0 0 0 0 4 0 0 4

Total # of neighbors = 410279
Ave neighs/atom = 3.23783
Ave special neighs/atom = 0
Neighbor list builds = 12
Dangerous builds = 0
  if "${prs} > 2" then "jump in.carbonbond loop2"
jump in.carbonbond loop1
  run   10000
WARNING: One or more atoms are time integrated more than once (../modify.cpp:304)
Setting up run at Thu Jul 25 13:00:47 2024

Memory usage per processor = 32.5877 Mbytes
    Step    Atoms numbonds            CPU        CPULeft         KinEng            prs 
  240004   126714   306175              0              0      29.811415   0.0032603042 
  250000   126714   306175      62.000173    0.024809995      30.231027   0.0034745592 
  250004   126714   306175      62.025261              0      30.231177   0.0034738282 
Loop time of 62.0254 on 12 procs for 10000 steps with 126714 atoms, finish time Thu Jul 25 13:01:49 2024


Pair  time (%) = 11.919 (19.2164)
Bond  time (%) = 27.7296 (44.7069)
Neigh time (%) = 0.132196 (0.213131)
Comm  time (%) = 0.494304 (0.796939)
Outpt time (%) = 0.00439616 (0.00708768)
Other time (%) = 21.7458 (35.0596)

Nlocal:    10559.5 ave 15467 max 3410 min
Histogram: 4 0 0 0 0 0 0 4 0 4
Nghost:    139.333 ave 402 max 0 min
Histogram: 6 2 0 0 0 0 0 0 1 3
Neighs:    34207.8 ave 53527 max 10297 min
Histogram: 4 0 0 0 0 0 4 0 0 4

Total # of neighbors = 410493
Ave neighs/atom = 3.23952
Ave special neighs/atom = 0
Neighbor list builds = 10
Dangerous builds = 0
  if "${prs} > 2" then "jump in.carbonbond loop2"
jump in.carbonbond loop1
  run   10000
WARNING: One or more atoms are time integrated more than once (../modify.cpp:304)
Setting up run at Thu Jul 25 13:01:49 2024

Memory usage per processor = 32.5927 Mbytes
    Step    Atoms numbonds            CPU        CPULeft         KinEng            prs 
  250004   126714   306175              0              0      30.231177   0.0034659671 
  260000   126714   306175       62.29963    0.024929825      30.787509   0.0032161491 
  260004   126714   306175      62.324792              0      30.787736   0.0032151751 
Loop time of 62.3249 on 12 procs for 10000 steps with 126714 atoms, finish time Thu Jul 25 13:02:52 2024


Pair  time (%) = 11.9265 (19.136)
Bond  time (%) = 27.7398 (44.5085)
Neigh time (%) = 0.145126 (0.232854)
Comm  time (%) = 0.519711 (0.833874)
Outpt time (%) = 0.00435589 (0.006989)
Other time (%) = 21.9894 (35.2818)

Nlocal:    10559.5 ave 15448 max 3410 min
Histogram: 4 0 0 0 0 0 0 4 0 4
Nghost:    154 ave 407 max 0 min
Histogram: 4 3 0 1 0 0 0 0 1 3
Neighs:    34219.1 ave 53479 max 10297 min
Histogram: 4 0 0 0 0 0 4 0 0 4

Total # of neighbors = 410629
Ave neighs/atom = 3.2406
Ave special neighs/atom = 0
Neighbor list builds = 11
Dangerous builds = 0
  if "${prs} > 2" then "jump in.carbonbond loop2"
jump in.carbonbond loop1
  run   10000
WARNING: One or more atoms are time integrated more than once (../modify.cpp:304)
Setting up run at Thu Jul 25 13:02:52 2024

Memory usage per processor = 32.5927 Mbytes
    Step    Atoms numbonds            CPU        CPULeft         KinEng            prs 
  260004   126714   306175              0              0      30.787736    0.003216258 
  270000   126714   306175      62.559383    0.025033768      31.173124   0.0027295994 
  270004   126714   306175       62.58509              0      31.173307   0.0027291114 
Loop time of 62.5852 on 12 procs for 10000 steps with 126714 atoms, finish time Thu Jul 25 13:03:54 2024


Pair  time (%) = 11.9204 (19.0468)
Bond  time (%) = 27.7519 (44.3426)
Neigh time (%) = 0.132499 (0.21171)
Comm  time (%) = 0.528924 (0.845127)
Outpt time (%) = 0.00479701 (0.00766477)
Other time (%) = 22.2466 (35.5461)

Nlocal:    10559.5 ave 15406 max 3410 min
Histogram: 4 0 0 0 0 0 0 3 1 4
Nghost:    171.667 ave 439 max 0 min
Histogram: 4 1 2 1 0 0 0 0 1 3
Neighs:    34218.1 ave 53413 max 10297 min
Histogram: 4 0 0 0 0 0 4 0 0 4

Total # of neighbors = 410617
Ave neighs/atom = 3.2405
Ave special neighs/atom = 0
Neighbor list builds = 10
Dangerous builds = 0
  if "${prs} > 2" then "jump in.carbonbond loop2"
jump in.carbonbond loop1
  run   10000
WARNING: One or more atoms are time integrated more than once (../modify.cpp:304)
Setting up run at Thu Jul 25 13:03:54 2024

Memory usage per processor = 32.5927 Mbytes
    Step    Atoms numbonds            CPU        CPULeft         KinEng            prs 
  270004   126714   306175              0              0      31.173307   0.0027222312 
  280000   126714   306175      62.911353    0.025174613      31.536475   0.0021030584 
  280004   126714   306175      62.936838              0      31.536555   0.0021026954 
Loop time of 62.9369 on 12 procs for 10000 steps with 126714 atoms, finish time Thu Jul 25 13:04:57 2024


Pair  time (%) = 11.9328 (18.9599)
Bond  time (%) = 27.7684 (44.121)
Neigh time (%) = 0.132693 (0.210835)
Comm  time (%) = 0.554184 (0.880538)
Outpt time (%) = 0.00471047 (0.00748443)
Other time (%) = 22.5442 (35.8203)

Nlocal:    10559.5 ave 15342 max 3410 min
Histogram: 4 0 0 0 0 0 0 1 3 4
Nghost:    202.25 ave 450 max 0 min
Histogram: 4 0 1 1 2 0 0 0 0 4
Neighs:    34230.8 ave 53303 max 10297 min
Histogram: 4 0 0 0 0 0 4 0 0 4

Total # of neighbors = 410770
Ave neighs/atom = 3.24171
Ave special neighs/atom = 0
Neighbor list builds = 10
Dangerous builds = 0
  if "${prs} > 2" then "jump in.carbonbond loop2"
jump in.carbonbond loop1
  run   10000
WARNING: One or more atoms are time integrated more than once (../modify.cpp:304)
Setting up run at Thu Jul 25 13:04:57 2024

Memory usage per processor = 32.6055 Mbytes
    Step    Atoms numbonds            CPU        CPULeft         KinEng            prs 
  280004   126714   306175              0              0      31.536555   0.0021007471 
  290000   126714   306175      63.758738    0.025513702      31.883239    0.001978669 
  290004   126714   306175      63.784564              0      31.883382   0.0019782866 
Loop time of 63.7846 on 12 procs for 10000 steps with 126714 atoms, finish time Thu Jul 25 13:06:01 2024


Pair  time (%) = 11.9408 (18.7204)
Bond  time (%) = 27.8076 (43.596)
Neigh time (%) = 0.132339 (0.207477)
Comm  time (%) = 0.55152 (0.864659)
Outpt time (%) = 0.00466811 (0.00731855)
Other time (%) = 23.3478 (36.6041)

Nlocal:    10559.5 ave 15237 max 3410 min
Histogram: 4 0 0 0 0 0 0 0 4 4
Nghost:    234.417 ave 540 max 0 min
Histogram: 4 0 0 2 2 0 0 0 2 2
Neighs:    34251.5 ave 52932 max 10297 min
Histogram: 4 0 0 0 0 0 2 2 0 4

Total # of neighbors = 411018
Ave neighs/atom = 3.24367
Ave special neighs/atom = 0
Neighbor list builds = 10
Dangerous builds = 0
  if "${prs} > 2" then "jump in.carbonbond loop2"
jump in.carbonbond loop1
  run   10000
WARNING: One or more atoms are time integrated more than once (../modify.cpp:304)
Setting up run at Thu Jul 25 13:06:01 2024

Memory usage per processor = 32.6203 Mbytes
    Step    Atoms numbonds            CPU        CPULeft         KinEng            prs 
  290004   126714   306175              0              0      31.883382   0.0019784794 
  300000   126714   306175      64.636619    0.025864995      32.115554   0.0014816756 
  300004   126714   306175      64.663013              0      32.115638   0.0014815984 
Loop time of 64.6631 on 12 procs for 10000 steps with 126714 atoms, finish time Thu Jul 25 13:07:06 2024


Pair  time (%) = 11.9203 (18.4345)
Bond  time (%) = 27.8302 (43.0388)
Neigh time (%) = 0.145341 (0.224766)
Comm  time (%) = 0.578409 (0.894497)
Outpt time (%) = 0.0727795 (0.112552)
Other time (%) = 24.1161 (37.2949)

Nlocal:    10559.5 ave 15083 max 3410 min
Histogram: 4 0 0 0 0 0 0 0 4 4
Nghost:    254.167 ave 549 max 0 min
Histogram: 4 0 0 2 2 0 0 0 0 4
Neighs:    34259.8 ave 52421 max 10297 min
Histogram: 4 0 0 0 0 0 0 4 0 4

Total # of neighbors = 411117
Ave neighs/atom = 3.24445
Ave special neighs/atom = 0
Neighbor list builds = 11
Dangerous builds = 0
  if "${prs} > 2" then "jump in.carbonbond loop2"
jump in.carbonbond loop1
  run   10000
WARNING: One or more atoms are time integrated more than once (../modify.cpp:304)
Setting up run at Thu Jul 25 13:07:06 2024

Memory usage per processor = 32.6963 Mbytes
    Step    Atoms numbonds            CPU        CPULeft         KinEng            prs 
  300004   126714   306175              0              0      32.115638   0.0014792994 
  310000   126714   306175      65.580296    0.026242617      32.270939   0.0013836228 
  310004   126714   306175      65.607064              0      32.271001   0.0013838143 
Loop time of 65.6071 on 12 procs for 10000 steps with 126714 atoms, finish time Thu Jul 25 13:08:12 2024


Pair  time (%) = 11.9443 (18.2058)
Bond  time (%) = 27.8729 (42.4846)
Neigh time (%) = 0.132534 (0.202011)
Comm  time (%) = 0.597304 (0.910425)
Outpt time (%) = 0.0050608 (0.00771379)
Other time (%) = 25.055 (38.1894)

Nlocal:    10559.5 ave 14905 max 3410 min
Histogram: 4 0 0 0 0 0 0 0 4 4
Nghost:    269.917 ave 591 max 0 min
Histogram: 4 0 0 2 2 0 0 0 1 3
Neighs:    34262.2 ave 51837 max 10297 min
Histogram: 4 0 0 0 0 0 0 4 0 4

Total # of neighbors = 411146
Ave neighs/atom = 3.24468
Ave special neighs/atom = 0
Neighbor list builds = 10
Dangerous builds = 0
  if "${prs} > 2" then "jump in.carbonbond loop2"
jump in.carbonbond loop1
  run   10000
WARNING: One or more atoms are time integrated more than once (../modify.cpp:304)
Setting up run at Thu Jul 25 13:08:12 2024

Memory usage per processor = 32.6963 Mbytes
    Step    Atoms numbonds            CPU        CPULeft         KinEng            prs 
  310004   126714   306175              0              0      32.271001   0.0013871768 
  320000   126714   306175      67.261452    0.026915349      32.368779   0.0012139259 
  320004   126714   306175      67.289524              0      32.368768   0.0012138716 
Loop time of 67.2896 on 12 procs for 10000 steps with 126714 atoms, finish time Thu Jul 25 13:09:19 2024


Pair  time (%) = 11.9921 (17.8216)
Bond  time (%) = 27.9006 (41.4635)
Neigh time (%) = 0.132624 (0.197094)
Comm  time (%) = 0.624833 (0.928573)
Outpt time (%) = 0.00533954 (0.00793517)
Other time (%) = 26.6341 (39.5813)

Nlocal:    10559.5 ave 14705 max 3410 min
Histogram: 4 0 0 0 0 0 0 0 1 7
Nghost:    293.833 ave 604 max 0 min
Histogram: 4 0 0 2 0 2 0 0 0 4
Neighs:    34269.8 ave 51242 max 10297 min
Histogram: 4 0 0 0 0 0 0 4 0 4

Total # of neighbors = 411238
Ave neighs/atom = 3.2454
Ave special neighs/atom = 0
Neighbor list builds = 10
Dangerous builds = 0
  if "${prs} > 2" then "jump in.carbonbond loop2"
jump in.carbonbond loop1
  run   10000
WARNING: One or more atoms are time integrated more than once (../modify.cpp:304)
Setting up run at Thu Jul 25 13:09:19 2024

Memory usage per processor = 32.6963 Mbytes
    Step    Atoms numbonds            CPU        CPULeft         KinEng            prs 
  320004   126714   306175              0              0      32.368768   0.0012137064 
  330000   126714   306175      68.908851    0.027574572      32.356686  0.00076191261 
  330004   126714   306175      68.936842              0      32.356692   0.0007618657 
Loop time of 68.9369 on 12 procs for 10000 steps with 126714 atoms, finish time Thu Jul 25 13:10:28 2024


Pair  time (%) = 12.006 (17.4159)
Bond  time (%) = 27.9202 (40.501)
Neigh time (%) = 0.133593 (0.19379)
Comm  time (%) = 0.648566 (0.940811)
Outpt time (%) = 0.00560979 (0.00813757)
Other time (%) = 28.223 (40.9404)

Nlocal:    10559.5 ave 14454 max 3410 min
Histogram: 4 0 0 0 0 0 0 0 0 8
Nghost:    319.917 ave 672 max 0 min
Histogram: 4 0 0 0 2 2 0 0 2 2
Neighs:    34293.5 ave 50662 max 10297 min
Histogram: 4 0 0 0 0 0 0 3 1 4

Total # of neighbors = 411522
Ave neighs/atom = 3.24764
Ave special neighs/atom = 0
Neighbor list builds = 10
Dangerous builds = 0
  if "${prs} > 2" then "jump in.carbonbond loop2"
jump in.carbonbond loop1
  run   10000
WARNING: One or more atoms are time integrated more than once (../modify.cpp:304)
Setting up run at Thu Jul 25 13:10:28 2024

Memory usage per processor = 32.6963 Mbytes
    Step    Atoms numbonds            CPU        CPULeft         KinEng            prs 
  330004   126714   306175              0              0      32.356692  0.00076160017 
  340000   126714   306175      70.293071    0.028128481      32.411261  0.00055980288 
  340004   126714   306175        70.3221              0      32.411243  0.00055963497 
Loop time of 70.3222 on 12 procs for 10000 steps with 126714 atoms, finish time Thu Jul 25 13:11:38 2024


Pair  time (%) = 12.0141 (17.0844)
Bond  time (%) = 27.9443 (39.7376)
Neigh time (%) = 0.133112 (0.189289)
Comm  time (%) = 0.654864 (0.931234)
Outpt time (%) = 0.00632467 (0.00899385)
Other time (%) = 29.5695 (42.0485)

Nlocal:    10559.5 ave 14365 max 3410 min
Histogram: 4 0 0 0 0 0 0 0 0 8
Nghost:    354.833 ave 708 max 0 min
Histogram: 4 0 0 0 1 2 1 0 0 4
Neighs:    34310.4 ave 50136 max 10297 min
Histogram: 4 0 0 0 0 0 0 0 4 4

Total # of neighbors = 411725
Ave neighs/atom = 3.24925
Ave special neighs/atom = 0
Neighbor list builds = 10
Dangerous builds = 0
  if "${prs} > 2" then "jump in.carbonbond loop2"
jump in.carbonbond loop1
  run   10000
WARNING: One or more atoms are time integrated more than once (../modify.cpp:304)
Setting up run at Thu Jul 25 13:11:38 2024

Memory usage per processor = 32.6963 Mbytes
    Step    Atoms numbonds            CPU        CPULeft         KinEng            prs 
  340004   126714   306175              0              0      32.411243    0.000551345 
  350000   126714   306175      71.845583    0.028749734      32.238095  0.00027483623 
  350004   126714   306175      71.874677              0      32.238042  0.00027476373 
Loop time of 71.8747 on 12 procs for 10000 steps with 126714 atoms, finish time Thu Jul 25 13:12:50 2024


Pair  time (%) = 12.0486 (16.7633)
Bond  time (%) = 27.9867 (38.9381)
Neigh time (%) = 0.119562 (0.166347)
Comm  time (%) = 0.6705 (0.932873)
Outpt time (%) = 0.00621236 (0.00864331)
Other time (%) = 31.0432 (43.1907)

Nlocal:    10559.5 ave 14666 max 3410 min
Histogram: 4 0 0 0 0 0 0 0 1 7
Nghost:    390.5 ave 792 max 0 min
Histogram: 4 0 0 0 0 4 0 0 1 3
Neighs:    34328.5 ave 49565 max 10297 min
Histogram: 4 0 0 0 0 0 0 0 4 4

Total # of neighbors = 411942
Ave neighs/atom = 3.25096
Ave special neighs/atom = 0
Neighbor list builds = 9
Dangerous builds = 0
  if "${prs} > 2" then "jump in.carbonbond loop2"
jump in.carbonbond loop1
  run   10000
WARNING: One or more atoms are time integrated more than once (../modify.cpp:304)
Setting up run at Thu Jul 25 13:12:50 2024

Memory usage per processor = 32.6963 Mbytes
    Step    Atoms numbonds            CPU        CPULeft         KinEng            prs 
  350004   126714   306175              0              0      32.238042  0.00027495275 
  360000   126714   306175      73.681255    0.029484297      31.993699  0.00017236908 
  360004   126714   306175      73.711067              0      31.993608  0.00017242851 
Loop time of 73.7111 on 12 procs for 10000 steps with 126714 atoms, finish time Thu Jul 25 13:14:04 2024


Pair  time (%) = 12.0549 (16.3542)
Bond  time (%) = 27.9994 (37.9853)
Neigh time (%) = 0.119728 (0.162428)
Comm  time (%) = 0.684127 (0.928118)
Outpt time (%) = 0.00691351 (0.00937919)
Other time (%) = 32.8461 (44.5605)

Nlocal:    10559.5 ave 15006 max 3410 min
Histogram: 4 0 0 0 0 0 0 0 4 4
Nghost:    427 ave 834 max 0 min
Histogram: 4 0 0 0 0 3 1 0 2 2
Neighs:    34355.1 ave 48856 max 10297 min
Histogram: 4 0 0 0 0 0 0 0 3 5

Total # of neighbors = 412261
Ave neighs/atom = 3.25348
Ave special neighs/atom = 0
Neighbor list builds = 9
Dangerous builds = 0
  if "${prs} > 2" then "jump in.carbonbond loop2"
jump in.carbonbond loop1
  run   10000
WARNING: One or more atoms are time integrated more than once (../modify.cpp:304)
Setting up run at Thu Jul 25 13:14:04 2024

Memory usage per processor = 32.7165 Mbytes
    Step    Atoms numbonds            CPU        CPULeft         KinEng            prs 
  360004   126714   306175              0              0      31.993608  0.00017237794 
  370000   126714   306175      75.371552    0.030160687      31.874132  0.00047006268 
  370004   126714   306175      75.402142              0      31.874109  0.00046983823 
Loop time of 75.4022 on 12 procs for 10000 steps with 126714 atoms, finish time Thu Jul 25 13:15:20 2024


Pair  time (%) = 12.0202 (15.9415)
Bond  time (%) = 28.0166 (37.1562)
Neigh time (%) = 0.106003 (0.140583)
Comm  time (%) = 0.704715 (0.934608)
Outpt time (%) = 0.00689174 (0.00913997)
Other time (%) = 34.5477 (45.8179)

Nlocal:    10559.5 ave 15329 max 3410 min
Histogram: 4 0 0 0 0 0 0 1 3 4
Nghost:    466.417 ave 912 max 0 min
Histogram: 4 0 0 0 0 1 3 0 2 2
Neighs:    34379.6 ave 47868 max 10297 min
Histogram: 4 0 0 0 0 0 0 0 0 8

Total # of neighbors = 412555
Ave neighs/atom = 3.2558
Ave special neighs/atom = 0
Neighbor list builds = 8
Dangerous builds = 0
  if "${prs} > 2" then "jump in.carbonbond loop2"
jump in.carbonbond loop1
  run   10000
WARNING: One or more atoms are time integrated more than once (../modify.cpp:304)
Setting up run at Thu Jul 25 13:15:20 2024

Memory usage per processor = 32.7165 Mbytes
    Step    Atoms numbonds            CPU        CPULeft         KinEng            prs 
  370004   126714   306175              0              0      31.874109  0.00046967569 
  380000   126714   306175      77.314838    0.030938312      31.729957  0.00037467228 
  380004   126714   306175       77.34635              0      31.729903  0.00037491248 
Loop time of 77.3464 on 12 procs for 10000 steps with 126714 atoms, finish time Thu Jul 25 13:16:37 2024


Pair  time (%) = 12.0335 (15.5579)
Bond  time (%) = 28.0233 (36.2309)
Neigh time (%) = 0.106217 (0.137326)
Comm  time (%) = 0.719438 (0.93015)
Outpt time (%) = 0.00736184 (0.00951801)
Other time (%) = 36.4566 (47.1341)

Nlocal:    10559.5 ave 15755 max 3410 min
Histogram: 4 0 0 0 0 0 0 4 0 4
Nghost:    499.667 ave 956 max 0 min
Histogram: 4 0 0 0 0 1 3 0 0 4
Neighs:    34401.8 ave 48387 max 10297 min
Histogram: 4 0 0 0 0 0 0 0 1 7

Total # of neighbors = 412822
Ave neighs/atom = 3.2579
Ave special neighs/atom = 0
Neighbor list builds = 8
Dangerous builds = 0
  if "${prs} > 2" then "jump in.carbonbond loop2"
jump in.carbonbond loop1
  run   10000
WARNING: One or more atoms are time integrated more than once (../modify.cpp:304)
Setting up run at Thu Jul 25 13:16:37 2024

Memory usage per processor = 32.7509 Mbytes
    Step    Atoms numbonds            CPU        CPULeft         KinEng            prs 
  380004   126714   306175              0              0      31.729903  0.00037478537 
  390000   126714   306175      79.283124    0.031725942      31.573631  0.00043071189 
  390004   126714   306175      79.315488              0      31.573562  0.00043072995 
Loop time of 79.3156 on 12 procs for 10000 steps with 126714 atoms, finish time Thu Jul 25 13:17:56 2024


Pair  time (%) = 12.0529 (15.1962)
Bond  time (%) = 28.0154 (35.3215)
Neigh time (%) = 0.105996 (0.133638)
Comm  time (%) = 0.734715 (0.926319)
Outpt time (%) = 0.00809905 (0.0102112)
Other time (%) = 38.3984 (48.4122)

Nlocal:    10559.5 ave 16120 max 3410 min
Histogram: 4 0 0 0 0 0 2 2 0 4
Nghost:    520.667 ave 977 max 0 min
Histogram: 4 0 0 0 0 1 2 1 0 4
Neighs:    34424.4 ave 49552 max 10297 min
Histogram: 4 0 0 0 0 0 0 0 4 4

Total # of neighbors = 413093
Ave neighs/atom = 3.26004
Ave special neighs/atom = 0
Neighbor list builds = 8
Dangerous builds = 0
  if "${prs} > 2" then "jump in.carbonbond loop2"
jump in.carbonbond loop1
  run   10000
WARNING: One or more atoms are time integrated more than once (../modify.cpp:304)
Setting up run at Thu Jul 25 13:17:56 2024

Memory usage per processor = 32.7509 Mbytes
    Step    Atoms numbonds            CPU        CPULeft         KinEng            prs 
  390004   126714   306175              0              0      31.573562  0.00043057617 
  400000   126714   306175      81.454985    0.032595033      31.374946  0.00017510038 
  400004   126714   306175      81.488327              0       31.37487  0.00017513455 
Loop time of 81.4884 on 12 procs for 10000 steps with 126714 atoms, finish time Thu Jul 25 13:19:18 2024


Pair  time (%) = 12.0807 (14.825)
Bond  time (%) = 28.047 (34.4184)
Neigh time (%) = 0.105657 (0.129659)
Comm  time (%) = 0.749842 (0.920182)
Outpt time (%) = 0.101621 (0.124706)
Other time (%) = 40.4036 (49.582)

Nlocal:    10559.5 ave 16517 max 3410 min
Histogram: 4 0 0 0 0 0 4 0 0 4
Nghost:    541.083 ave 1036 max 0 min
Histogram: 4 0 0 0 0 2 1 1 1 3
Neighs:    34438 ave 50794 max 10297 min
Histogram: 4 0 0 0 0 0 0 1 3 4

Total # of neighbors = 413256
Ave neighs/atom = 3.26133
Ave special neighs/atom = 0
Neighbor list builds = 8
Dangerous builds = 0
  if "${prs} > 2" then "jump in.carbonbond loop2"
jump in.carbonbond loop1
  run   10000
WARNING: One or more atoms are time integrated more than once (../modify.cpp:304)
Setting up run at Thu Jul 25 13:19:18 2024

Memory usage per processor = 33.2446 Mbytes
    Step    Atoms numbonds            CPU        CPULeft         KinEng            prs 
  400004   126714   306175              0              0       31.37487  0.00017479778 
  410000   126714   306175      83.115019    0.033259313      31.182231  0.00041504552 
  410004   126714   306175      83.148875              0      31.182192  0.00041513463 
Loop time of 83.1489 on 12 procs for 10000 steps with 126714 atoms, finish time Thu Jul 25 13:20:41 2024


Pair  time (%) = 12.0883 (14.5382)
Bond  time (%) = 28.064 (33.7514)
Neigh time (%) = 0.105997 (0.127478)
Comm  time (%) = 0.784838 (0.943895)
Outpt time (%) = 0.00877225 (0.01055)
Other time (%) = 42.0971 (50.6285)

Nlocal:    10559.5 ave 16850 max 3410 min
Histogram: 4 0 0 0 0 1 3 0 0 4
Nghost:    555.833 ave 1067 max 0 min
Histogram: 4 0 0 0 0 2 1 1 2 2
Neighs:    34476.2 ave 51856 max 10297 min
Histogram: 4 0 0 0 0 0 0 4 0 4

Total # of neighbors = 413714
Ave neighs/atom = 3.26494
Ave special neighs/atom = 0
Neighbor list builds = 8
Dangerous builds = 0
  if "${prs} > 2" then "jump in.carbonbond loop2"
jump in.carbonbond loop1
  run   10000
WARNING: One or more atoms are time integrated more than once (../modify.cpp:304)
Setting up run at Thu Jul 25 13:20:41 2024

Memory usage per processor = 33.2446 Mbytes
    Step    Atoms numbonds            CPU        CPULeft         KinEng            prs 
  410004   126714   306175              0              0      31.182192  0.00041498496 
  420000   126714   306175      85.051654    0.034034277      30.990714  0.00045520628 
  420004   126714   306175      85.086109              0      30.990621  0.00045490119 
Loop time of 85.0862 on 12 procs for 10000 steps with 126714 atoms, finish time Thu Jul 25 13:22:06 2024


Pair  time (%) = 12.1206 (14.2451)
Bond  time (%) = 28.0887 (33.0121)
Neigh time (%) = 0.119103 (0.13998)
Comm  time (%) = 0.816395 (0.959491)
Outpt time (%) = 0.00880796 (0.0103518)
Other time (%) = 43.9325 (51.633)

Nlocal:    10559.5 ave 17244 max 3410 min
Histogram: 4 0 0 0 0 4 0 0 0 4
Nghost:    574.333 ave 1144 max 0 min
Histogram: 4 0 0 0 0 1 3 0 3 1
Neighs:    34506.3 ave 53124 max 10297 min
Histogram: 4 0 0 0 0 0 1 3 0 4

Total # of neighbors = 414076
Ave neighs/atom = 3.2678
Ave special neighs/atom = 0
Neighbor list builds = 9
Dangerous builds = 0
  if "${prs} > 2" then "jump in.carbonbond loop2"
jump in.carbonbond loop1
  run   10000
WARNING: One or more atoms are time integrated more than once (../modify.cpp:304)
Setting up run at Thu Jul 25 13:22:06 2024

Memory usage per processor = 33.2446 Mbytes
    Step    Atoms numbonds            CPU        CPULeft         KinEng            prs 
  420004   126714   306175              0              0      30.990621  0.00045697926 
  430000   126714   306175      86.899696     0.03477379      30.733847   0.0006381625 
  430004   126714   306175       86.93517              0      30.733743   0.0006381134 
Loop time of 86.9353 on 12 procs for 10000 steps with 126714 atoms, finish time Thu Jul 25 13:23:33 2024


Pair  time (%) = 12.1534 (13.9798)
Bond  time (%) = 28.0889 (32.3101)
Neigh time (%) = 0.10596 (0.121884)
Comm  time (%) = 0.819798 (0.942999)
Outpt time (%) = 0.00928056 (0.0106753)
Other time (%) = 45.758 (52.6345)

Nlocal:    10559.5 ave 17613 max 3410 min
Histogram: 4 0 0 0 1 3 0 0 0 4
Nghost:    588.25 ave 1110 max 0 min
Histogram: 4 0 0 0 0 1 2 1 1 3
Neighs:    34539.1 ave 54288 max 10297 min
Histogram: 4 0 0 0 0 0 4 0 0 4

Total # of neighbors = 414469
Ave neighs/atom = 3.2709
Ave special neighs/atom = 0
Neighbor list builds = 8
Dangerous builds = 0
  if "${prs} > 2" then "jump in.carbonbond loop2"
jump in.carbonbond loop1
  run   10000
WARNING: One or more atoms are time integrated more than once (../modify.cpp:304)
Setting up run at Thu Jul 25 13:23:33 2024

Memory usage per processor = 33.2446 Mbytes
    Step    Atoms numbonds            CPU        CPULeft         KinEng            prs 
  430004   126714   306175              0              0      30.733743  0.00063787218 
  440000   126714   306175      88.665024    0.035480204      30.571505  0.00083274407 
  440004   126714   306175       88.70086              0      30.571464  0.00083280967 
Loop time of 88.7009 on 12 procs for 10000 steps with 126714 atoms, finish time Thu Jul 25 13:25:02 2024


Pair  time (%) = 12.1712 (13.7217)
Bond  time (%) = 28.0921 (31.6706)
Neigh time (%) = 0.105856 (0.119341)
Comm  time (%) = 0.833625 (0.939815)
Outpt time (%) = 0.00985263 (0.0111077)
Other time (%) = 47.4882 (53.5375)

Nlocal:    10559.5 ave 17922 max 3410 min
Histogram: 4 0 0 0 4 0 0 0 0 4
Nghost:    587.667 ave 1131 max 0 min
Histogram: 4 0 0 0 0 1 2 1 1 3
Neighs:    34543.9 ave 55223 max 10297 min
Histogram: 4 0 0 0 0 0 4 0 0 4

Total # of neighbors = 414527
Ave neighs/atom = 3.27136
Ave special neighs/atom = 0
Neighbor list builds = 8
Dangerous builds = 0
  if "${prs} > 2" then "jump in.carbonbond loop2"
jump in.carbonbond loop1
  run   10000
WARNING: One or more atoms are time integrated more than once (../modify.cpp:304)
Setting up run at Thu Jul 25 13:25:02 2024

Memory usage per processor = 33.2446 Mbytes
    Step    Atoms numbonds            CPU        CPULeft         KinEng            prs 
  440004   126714   306175              0              0      30.571464   0.0008340139 
  450000   126714   306175      90.448225    0.036193769      30.483517   0.0013523728 
  450004   126714   306175      90.485033              0      30.483471   0.0013522162 
Loop time of 90.4851 on 12 procs for 10000 steps with 126714 atoms, finish time Thu Jul 25 13:26:33 2024


Pair  time (%) = 12.1974 (13.48)
Bond  time (%) = 28.1088 (31.0645)
Neigh time (%) = 0.119078 (0.131599)
Comm  time (%) = 0.841724 (0.930234)
Outpt time (%) = 0.00989421 (0.0109346)
Other time (%) = 49.2082 (54.3827)

Nlocal:    10559.5 ave 18374 max 3410 min
Histogram: 4 0 0 0 4 0 0 0 0 4
Nghost:    583.5 ave 1180 max 0 min
Histogram: 4 0 0 0 0 2 2 1 2 1
Neighs:    34574 ave 56715 max 10297 min
Histogram: 4 0 0 0 0 4 0 0 0 4

Total # of neighbors = 414888
Ave neighs/atom = 3.27421
Ave special neighs/atom = 0
Neighbor list builds = 9
Dangerous builds = 0
  if "${prs} > 2" then "jump in.carbonbond loop2"
jump in.carbonbond loop1
  run   10000
WARNING: One or more atoms are time integrated more than once (../modify.cpp:304)
Setting up run at Thu Jul 25 13:26:33 2024

Memory usage per processor = 33.2446 Mbytes
    Step    Atoms numbonds            CPU        CPULeft         KinEng            prs 
  450004   126714   306175              0              0      30.483471   0.0013514506 
  460000   126714   306175       92.41373    0.036980286      30.415081   0.0011621517 
  460004   126714   306175      92.451222              0       30.41505   0.0011620956 
Loop time of 92.4513 on 12 procs for 10000 steps with 126714 atoms, finish time Thu Jul 25 13:28:05 2024


Pair  time (%) = 12.2682 (13.2699)
Bond  time (%) = 28.1316 (30.4286)
Neigh time (%) = 0.120021 (0.129821)
Comm  time (%) = 0.884026 (0.956208)
Outpt time (%) = 0.0101962 (0.0110287)
Other time (%) = 51.0372 (55.2044)

Nlocal:    10559.5 ave 18756 max 3410 min
Histogram: 4 0 0 2 2 0 0 0 0 4
Nghost:    578.75 ave 1145 max 0 min
Histogram: 4 0 0 0 0 1 2 2 1 2
Neighs:    34596.6 ave 58112 max 10297 min
Histogram: 4 0 0 0 0 4 0 0 0 4

Total # of neighbors = 415159
Ave neighs/atom = 3.27635
Ave special neighs/atom = 0
Neighbor list builds = 9
Dangerous builds = 0
  if "${prs} > 2" then "jump in.carbonbond loop2"
jump in.carbonbond loop1
  run   10000
WARNING: One or more atoms are time integrated more than once (../modify.cpp:304)
Setting up run at Thu Jul 25 13:28:05 2024

Memory usage per processor = 33.2446 Mbytes
    Step    Atoms numbonds            CPU        CPULeft         KinEng            prs 
  460004   126714   306175              0              0       30.41505   0.0011595742 
  470000   126714   306175      93.733701    0.037508485      30.361273   0.0013824852 
  470004   126714   306175      93.771861              0      30.361252   0.0013829077 
Loop time of 93.7719 on 12 procs for 10000 steps with 126714 atoms, finish time Thu Jul 25 13:29:39 2024


Pair  time (%) = 12.3065 (13.1238)
Bond  time (%) = 28.128 (29.9962)
Neigh time (%) = 0.106276 (0.113334)
Comm  time (%) = 0.841829 (0.897741)
Outpt time (%) = 0.0106046 (0.0113089)
Other time (%) = 52.3787 (55.8576)

Nlocal:    10559.5 ave 19144 max 3410 min
Histogram: 4 0 0 4 0 0 0 0 0 4
Nghost:    559.417 ave 1109 max 0 min
Histogram: 4 0 0 0 0 2 2 0 2 2
Neighs:    34598.5 ave 59500 max 10297 min
Histogram: 4 0 0 0 4 0 0 0 0 4

Total # of neighbors = 415182
Ave neighs/atom = 3.27653
Ave special neighs/atom = 0
Neighbor list builds = 8
Dangerous builds = 0
  if "${prs} > 2" then "jump in.carbonbond loop2"
jump in.carbonbond loop1
  run   10000
WARNING: One or more atoms are time integrated more than once (../modify.cpp:304)
Setting up run at Thu Jul 25 13:29:39 2024

Memory usage per processor = 33.2446 Mbytes
    Step    Atoms numbonds            CPU        CPULeft         KinEng            prs 
  470004   126714   306175              0              0      30.361252   0.0013768572 
  480000   126714   306175      95.409347    0.038179012      30.284859   0.0017731547 
  480004   126714   306175      95.448083              0      30.284846   0.0017732094 
Loop time of 95.4482 on 12 procs for 10000 steps with 126714 atoms, finish time Thu Jul 25 13:31:15 2024


Pair  time (%) = 12.3304 (12.9185)
Bond  time (%) = 28.1171 (29.458)
Neigh time (%) = 0.106426 (0.111502)
Comm  time (%) = 0.844746 (0.885031)
Outpt time (%) = 0.0112225 (0.0117577)
Other time (%) = 54.0382 (56.6152)

Nlocal:    10559.5 ave 19516 max 3410 min
Histogram: 4 0 0 4 0 0 0 0 0 4
Nghost:    546.583 ave 1102 max 0 min
Histogram: 4 0 0 0 0 2 2 1 1 2
Neighs:    34594.6 ave 60667 max 10297 min
Histogram: 4 0 0 0 4 0 0 0 0 4

Total # of neighbors = 415135
Ave neighs/atom = 3.27616
Ave special neighs/atom = 0
Neighbor list builds = 8
Dangerous builds = 0
  if "${prs} > 2" then "jump in.carbonbond loop2"
jump in.carbonbond loop1
  run   10000
WARNING: One or more atoms are time integrated more than once (../modify.cpp:304)
Setting up run at Thu Jul 25 13:31:15 2024

Memory usage per processor = 33.2446 Mbytes
    Step    Atoms numbonds            CPU        CPULeft         KinEng            prs 
  480004   126714   306175              0              0      30.284846   0.0017722703 
  490000   126714   306175      97.458987    0.038999196      30.377439   0.0024399384 
  490004   126714   306175      97.498617              0      30.377508   0.0024400861 
Loop time of 97.4987 on 12 procs for 10000 steps with 126714 atoms, finish time Thu Jul 25 13:32:52 2024


Pair  time (%) = 12.3625 (12.6797)
Bond  time (%) = 28.138 (28.8599)
Neigh time (%) = 0.10673 (0.109468)
Comm  time (%) = 0.861469 (0.88357)
Outpt time (%) = 0.0112903 (0.0115799)
Other time (%) = 56.0186 (57.4558)

Nlocal:    10559.5 ave 19872 max 3410 min
Histogram: 4 0 1 3 0 0 0 0 0 4
Nghost:    542.25 ave 995 max 0 min
Histogram: 4 0 0 0 0 0 3 1 1 3
Neighs:    34608.1 ave 61702 max 10297 min
Histogram: 4 0 0 0 4 0 0 0 0 4

Total # of neighbors = 415297
Ave neighs/atom = 3.27744
Ave special neighs/atom = 0
Neighbor list builds = 8
Dangerous builds = 0
  if "${prs} > 2" then "jump in.carbonbond loop2"
jump in.carbonbond loop1
  run   10000
WARNING: One or more atoms are time integrated more than once (../modify.cpp:304)
Setting up run at Thu Jul 25 13:32:52 2024

Memory usage per processor = 33.2446 Mbytes
    Step    Atoms numbonds            CPU        CPULeft         KinEng            prs 
  490004   126714   306175              0              0      30.377508   0.0024362099 
  500000   126714   306175      99.737846    0.039911104       30.51972   0.0024998918 
  500004   126714   306175      99.778635              0      30.519815   0.0024996721 
Loop time of 99.7787 on 12 procs for 10000 steps with 126714 atoms, finish time Thu Jul 25 13:34:32 2024


Pair  time (%) = 12.4055 (12.4331)
Bond  time (%) = 28.1681 (28.2305)
Neigh time (%) = 0.107199 (0.107436)
Comm  time (%) = 0.869916 (0.871845)
Outpt time (%) = 0.100765 (0.100988)
Other time (%) = 58.1273 (58.2562)

Nlocal:    10559.5 ave 20182 max 3410 min
Histogram: 4 0 4 0 0 0 0 0 0 4
Nghost:    538.75 ave 945 max 0 min
Histogram: 4 0 0 0 0 0 1 3 0 4
Neighs:    34634.6 ave 62682 max 10297 min
Histogram: 4 0 0 1 3 0 0 0 0 4

Total # of neighbors = 415615
Ave neighs/atom = 3.27995
Ave special neighs/atom = 0
Neighbor list builds = 8
Dangerous builds = 0
  if "${prs} > 2" then "jump in.carbonbond loop2"
jump in.carbonbond loop1
  run   10000
WARNING: One or more atoms are time integrated more than once (../modify.cpp:304)
Setting up run at Thu Jul 25 13:34:32 2024

Memory usage per processor = 34.1402 Mbytes
    Step    Atoms numbonds            CPU        CPULeft         KinEng            prs 
  500004   126714   306175              0              0      30.519815   0.0024966514 
  510000   126714   306175      101.58208    0.040649092      30.660645   0.0023819333 
  510004   126714   306175      101.62332              0      30.660675   0.0023821849 
Loop time of 101.623 on 12 procs for 10000 steps with 126714 atoms, finish time Thu Jul 25 13:36:14 2024


Pair  time (%) = 12.4571 (12.2581)
Bond  time (%) = 28.1759 (27.7258)
Neigh time (%) = 0.12045 (0.118526)
Comm  time (%) = 0.899423 (0.885055)
Outpt time (%) = 0.0120824 (0.0118894)
Other time (%) = 59.9584 (59.0006)

Nlocal:    10559.5 ave 20521 max 3410 min
Histogram: 4 0 4 0 0 0 0 0 0 4
Nghost:    526.583 ave 965 max 0 min
Histogram: 4 0 0 0 0 0 4 0 0 4
Neighs:    34650.8 ave 63737 max 10297 min
Histogram: 4 0 0 4 0 0 0 0 0 4

Total # of neighbors = 415810
Ave neighs/atom = 3.28148
Ave special neighs/atom = 0
Neighbor list builds = 9
Dangerous builds = 0
  if "${prs} > 2" then "jump in.carbonbond loop2"
jump in.carbonbond loop1
  run   10000
WARNING: One or more atoms are time integrated more than once (../modify.cpp:304)
Setting up run at Thu Jul 25 13:36:14 2024

Memory usage per processor = 34.1402 Mbytes
    Step    Atoms numbonds            CPU        CPULeft         KinEng            prs 
  510004   126714   306175              0              0      30.660675   0.0023859785 
  520000   126714   306175      103.22619       0.041307      30.799298   0.0029765622 
  520004   126714   306175        103.268              0      30.799371   0.0029763786 
Loop time of 103.268 on 12 procs for 10000 steps with 126714 atoms, finish time Thu Jul 25 13:37:57 2024


Pair  time (%) = 12.5079 (12.1121)
Bond  time (%) = 28.1858 (27.2938)
Neigh time (%) = 0.0943372 (0.0913517)
Comm  time (%) = 0.841199 (0.814578)
Outpt time (%) = 0.0128174 (0.0124118)
Other time (%) = 61.626 (59.6758)

Nlocal:    10559.5 ave 20813 max 3410 min
Histogram: 4 0 4 0 0 0 0 0 0 4
Nghost:    513.75 ave 939 max 0 min
Histogram: 4 0 0 0 0 0 3 1 0 4
Neighs:    34669.8 ave 64700 max 10297 min
Histogram: 4 0 0 4 0 0 0 0 0 4

Total # of neighbors = 416037
Ave neighs/atom = 3.28328
Ave special neighs/atom = 0
Neighbor list builds = 7
Dangerous builds = 0
  if "${prs} > 2" then "jump in.carbonbond loop2"
jump in.carbonbond loop1
  run   10000
WARNING: One or more atoms are time integrated more than once (../modify.cpp:304)
Setting up run at Thu Jul 25 13:37:57 2024

Memory usage per processor = 34.1402 Mbytes
    Step    Atoms numbonds            CPU        CPULeft         KinEng            prs 
  520004   126714   306175              0              0      30.799371   0.0029737647 
[...]
 1290000   126714   306175        146.369    0.058571031      32.851305    0.068015069 
 1290004   126714   306175      146.42749              0      32.851208    0.068018362 
Loop time of 146.428 on 12 procs for 10000 steps with 126714 atoms, finish time Thu Jul 25 15:59:35 2024


Pair  time (%) = 14.5312 (9.92379)
Bond  time (%) = 28.2069 (19.2634)
Neigh time (%) = 0.243859 (0.166539)
Comm  time (%) = 0.65858 (0.449765)
Outpt time (%) = 0.0203449 (0.0138942)
Other time (%) = 102.767 (70.1826)

Nlocal:    10559.5 ave 32268 max 0 min
Histogram: 8 0 0 0 0 0 0 0 0 4
Nghost:    280.667 ave 926 max 0 min
Histogram: 8 0 0 0 0 0 0 0 2 2
Neighs:    36833.6 ave 113019 max 0 min
Histogram: 8 0 0 0 0 0 0 0 0 4

Total # of neighbors = 442003
Ave neighs/atom = 3.48819
Ave special neighs/atom = 0
Neighbor list builds = 17
Dangerous builds = 0
  if "${prs} > 2" then "jump in.carbonbond loop2"
jump in.carbonbond loop1
  run   10000
WARNING: One or more atoms are time integrated more than once (../modify.cpp:304)
Setting up run at Thu Jul 25 15:59:35 2024

Memory usage per processor = 67.7666 Mbytes
    Step    Atoms numbonds            CPU        CPULeft         KinEng            prs 
 1290004   126714   306175              0              0      32.851208    0.067981907 
 1300000   126714   306175       147.0851    0.058857583      32.761881    0.074881697 
 1300004   126714   306175      147.14496              0      32.761976    0.074880168 
Loop time of 147.145 on 12 procs for 10000 steps with 126714 atoms, finish time Thu Jul 25 16:02:03 2024


Pair  time (%) = 14.6818 (9.97778)
Bond  time (%) = 28.2475 (19.1971)
Neigh time (%) = 0.201882 (0.137199)
Comm  time (%) = 0.647447 (0.440006)
Outpt time (%) = 0.146777 (0.0997495)
Other time (%) = 103.22 (70.1482)

Nlocal:    10559.5 ave 32293 max 0 min
Histogram: 8 0 0 0 0 0 0 0 0 4
Nghost:    277.917 ave 914 max 0 min
Histogram: 8 0 0 0 0 0 0 0 2 2
Neighs:    37003.4 ave 113816 max 0 min
Histogram: 8 0 0 0 0 0 0 0 0 4

Total # of neighbors = 444041
Ave neighs/atom = 3.50428
Ave special neighs/atom = 0
Neighbor list builds = 14
Dangerous builds = 0
  if "${prs} > 2" then "jump in.carbonbond loop2"
jump in.carbonbond loop1
  run   10000
WARNING: One or more atoms are time integrated more than once (../modify.cpp:304)
Setting up run at Thu Jul 25 16:02:03 2024

Memory usage per processor = 69.4078 Mbytes
    Step    Atoms numbonds            CPU        CPULeft         KinEng            prs 
 1300004   126714   306175              0              0      32.761976    0.074806246 
 1310000   126714   306175      148.26894    0.059331311      32.573072    0.082305128 
 1310004   126714   306175       148.3278              0       32.57327    0.082306273 
Loop time of 148.328 on 12 procs for 10000 steps with 126714 atoms, finish time Thu Jul 25 16:04:31 2024


Pair  time (%) = 14.723 (9.92595)
Bond  time (%) = 28.202 (19.0133)
Neigh time (%) = 0.288064 (0.194208)
Comm  time (%) = 0.68592 (0.462435)
Outpt time (%) = 0.0202309 (0.0136393)
Other time (%) = 104.409 (70.3905)

Nlocal:    10559.5 ave 32293 max 0 min
Histogram: 8 0 0 0 0 0 0 0 0 4
Nghost:    279.75 ave 930 max 0 min
Histogram: 8 0 0 0 0 0 0 1 1 2
Neighs:    37171.3 ave 114443 max 0 min
Histogram: 8 0 0 0 0 0 0 0 0 4

Total # of neighbors = 446056
Ave neighs/atom = 3.52018
Ave special neighs/atom = 0
Neighbor list builds = 20
Dangerous builds = 0
  if "${prs} > 2" then "jump in.carbonbond loop2"
jump in.carbonbond loop1
  run   10000
WARNING: One or more atoms are time integrated more than once (../modify.cpp:304)
Setting up run at Thu Jul 25 16:04:31 2024

Memory usage per processor = 69.4078 Mbytes
    Step    Atoms numbonds            CPU        CPULeft         KinEng            prs 
 1310004   126714   306175              0              0       32.57327    0.082274835 
 1320000   126714   306175      149.05676    0.059646566      32.781728    0.091001464 
 1320004   126714   306175      149.11623              0      32.781494    0.091005157 
Loop time of 149.116 on 12 procs for 10000 steps with 126714 atoms, finish time Thu Jul 25 16:07:00 2024


Pair  time (%) = 14.8121 (9.93323)
Bond  time (%) = 28.1944 (18.9077)
Neigh time (%) = 0.36102 (0.242106)
Comm  time (%) = 0.721833 (0.484074)
Outpt time (%) = 0.0208739 (0.0139984)
Other time (%) = 105.006 (70.4189)

Nlocal:    10559.5 ave 32298 max 0 min
Histogram: 8 0 0 0 0 0 0 0 0 4
Nghost:    279.083 ave 927 max 0 min
Histogram: 8 0 0 0 0 0 0 1 1 2
Neighs:    37378.1 ave 115135 max 0 min
Histogram: 8 0 0 0 0 0 0 0 0 4

Total # of neighbors = 448537
Ave neighs/atom = 3.53976
Ave special neighs/atom = 0
Neighbor list builds = 25
Dangerous builds = 0
  if "${prs} > 2" then "jump in.carbonbond loop2"
jump in.carbonbond loop1
  run   10000
WARNING: One or more atoms are time integrated more than once (../modify.cpp:304)
Setting up run at Thu Jul 25 16:07:00 2024

Memory usage per processor = 69.4078 Mbytes
    Step    Atoms numbonds            CPU        CPULeft         KinEng            prs 
 1320004   126714   306175              0              0      32.781494    0.090940112 
 1330000   126714   306175      149.79652    0.059942588      32.339565     0.10410717 
 1330004   126714   306175      149.85691              0      32.339366     0.10411156 
Loop time of 149.857 on 12 procs for 10000 steps with 126714 atoms, finish time Thu Jul 25 16:09:30 2024


Pair  time (%) = 14.9839 (9.99881)
Bond  time (%) = 28.221 (18.832)
Neigh time (%) = 0.26262 (0.175247)
Comm  time (%) = 0.689566 (0.46015)
Outpt time (%) = 0.0208484 (0.0139122)
Other time (%) = 105.679 (70.5199)

Nlocal:    10559.5 ave 32294 max 0 min
Histogram: 8 0 0 0 0 0 0 0 0 4
Nghost:    278.417 ave 935 max 0 min
Histogram: 8 0 0 0 0 0 0 1 1 2
Neighs:    37608.3 ave 115838 max 0 min
Histogram: 8 0 0 0 0 0 0 0 0 4

Total # of neighbors = 451300
Ave neighs/atom = 3.56156
Ave special neighs/atom = 0
Neighbor list builds = 18
Dangerous builds = 0
  if "${prs} > 2" then "jump in.carbonbond loop2"
jump in.carbonbond loop1
  run   10000
WARNING: One or more atoms are time integrated more than once (../modify.cpp:304)
Setting up run at Thu Jul 25 16:09:30 2024

Memory usage per processor = 69.4078 Mbytes
    Step    Atoms numbonds            CPU        CPULeft         KinEng            prs 
 1330004   126714   306175              0              0      32.339366     0.10404922 
 1340000   126714   306175      150.31192     0.06014883      32.600535     0.11981462 
 1340004   126714   306175      150.37151              0      32.600944     0.11981731 
Loop time of 150.372 on 12 procs for 10000 steps with 126714 atoms, finish time Thu Jul 25 16:12:01 2024


Pair  time (%) = 15.1177 (10.0536)
Bond  time (%) = 28.2277 (18.772)
Neigh time (%) = 0.292032 (0.194207)
Comm  time (%) = 0.682017 (0.453555)
Outpt time (%) = 0.0207465 (0.0137968)
Other time (%) = 106.031 (70.5129)

Nlocal:    10559.5 ave 32306 max 0 min
Histogram: 8 0 0 0 0 0 0 0 0 4
Nghost:    278.083 ave 927 max 0 min
Histogram: 8 0 0 0 0 0 0 1 1 2
Neighs:    37806.6 ave 116405 max 0 min
Histogram: 8 0 0 0 0 0 0 0 0 4

Total # of neighbors = 453679
Ave neighs/atom = 3.58034
Ave special neighs/atom = 0
Neighbor list builds = 20
Dangerous builds = 0
  if "${prs} > 2" then "jump in.carbonbond loop2"
jump in.carbonbond loop1
  run   10000
WARNING: One or more atoms are time integrated more than once (../modify.cpp:304)
Setting up run at Thu Jul 25 16:12:01 2024

Memory usage per processor = 69.4078 Mbytes
    Step    Atoms numbonds            CPU        CPULeft         KinEng            prs 
 1340004   126714   306175              0              0      32.600944     0.11974983 
 1350000   126714   306175      151.29348    0.060541611      33.068112     0.13049873 
 1350004   126714   306175      151.35358              0      33.068167     0.13049755 
Loop time of 151.354 on 12 procs for 10000 steps with 126714 atoms, finish time Thu Jul 25 16:14:32 2024


Pair  time (%) = 15.2322 (10.064)
Bond  time (%) = 28.2558 (18.6688)
Neigh time (%) = 0.323706 (0.213874)
Comm  time (%) = 0.718019 (0.474398)
Outpt time (%) = 0.021068 (0.0139197)
Other time (%) = 106.803 (70.5651)

Nlocal:    10559.5 ave 32302 max 0 min
Histogram: 8 0 0 0 0 0 0 0 0 4
Nghost:    278.417 ave 934 max 0 min
Histogram: 8 0 0 0 0 0 0 1 1 2
Neighs:    38066.6 ave 117295 max 0 min
Histogram: 8 0 0 0 0 0 0 0 0 4

Total # of neighbors = 456799
Ave neighs/atom = 3.60496
Ave special neighs/atom = 0
Neighbor list builds = 22
Dangerous builds = 0
  if "${prs} > 2" then "jump in.carbonbond loop2"
jump in.carbonbond loop1
  run   10000
WARNING: One or more atoms are time integrated more than once (../modify.cpp:304)
Setting up run at Thu Jul 25 16:14:32 2024

Memory usage per processor = 69.4078 Mbytes
    Step    Atoms numbonds            CPU        CPULeft         KinEng            prs 
 1350004   126714   306175              0              0      33.068167      0.1302456 
 1360000   126714   306175      150.56168    0.060248774      33.370798     0.14524048 
 1360004   126714   306175      150.62248              0      33.370794     0.14524728 
Loop time of 150.623 on 12 procs for 10000 steps with 126714 atoms, finish time Thu Jul 25 16:17:03 2024


Pair  time (%) = 15.3492 (10.1905)
Bond  time (%) = 28.2445 (18.7518)
Neigh time (%) = 0.237039 (0.157373)
Comm  time (%) = 0.663091 (0.440234)
Outpt time (%) = 0.0214167 (0.0142188)
Other time (%) = 106.107 (70.4458)

Nlocal:    10559.5 ave 32318 max 0 min
Histogram: 8 0 0 0 0 0 0 0 0 4
Nghost:    275.75 ave 917 max 0 min
Histogram: 8 0 0 0 0 0 0 1 1 2
Neighs:    38320 ave 118192 max 0 min
Histogram: 8 0 0 0 0 0 0 0 0 4

Total # of neighbors = 459840
Ave neighs/atom = 3.62896
Ave special neighs/atom = 0
Neighbor list builds = 16
Dangerous builds = 0
  if "${prs} > 2" then "jump in.carbonbond loop2"
jump in.carbonbond loop1
  run   10000
WARNING: One or more atoms are time integrated more than once (../modify.cpp:304)
Setting up run at Thu Jul 25 16:17:03 2024

Memory usage per processor = 69.4078 Mbytes
    Step    Atoms numbonds            CPU        CPULeft         KinEng            prs 
 1360004   126714   306175              0              0      33.370794     0.14505065 
 1370000   126714   306175      152.16569    0.060890632       33.54205     0.15565579 
 1370004   126714   306175      152.22603              0      33.541928     0.15566372 
Loop time of 152.226 on 12 procs for 10000 steps with 126714 atoms, finish time Thu Jul 25 16:19:35 2024


Pair  time (%) = 15.4928 (10.1775)
Bond  time (%) = 28.3016 (18.5918)
Neigh time (%) = 0.283431 (0.186191)
Comm  time (%) = 0.688918 (0.452562)
Outpt time (%) = 0.0212128 (0.0139351)
Other time (%) = 107.438 (70.578)

Nlocal:    10559.5 ave 32325 max 0 min
Histogram: 8 0 0 0 0 0 0 0 0 4
Nghost:    274.25 ave 923 max 0 min
Histogram: 8 0 0 0 0 0 0 1 1 2
Neighs:    38588.4 ave 119134 max 0 min
Histogram: 8 0 0 0 0 0 0 0 0 4

Total # of neighbors = 463061
Ave neighs/atom = 3.65438
Ave special neighs/atom = 0
Neighbor list builds = 19
Dangerous builds = 0
  if "${prs} > 2" then "jump in.carbonbond loop2"
jump in.carbonbond loop1
  run   10000
WARNING: One or more atoms are time integrated more than once (../modify.cpp:304)
Setting up run at Thu Jul 25 16:19:35 2024

Memory usage per processor = 69.4078 Mbytes
    Step    Atoms numbonds            CPU        CPULeft         KinEng            prs 
 1370004   126714   306175              0              0      33.541928     0.15557532 
 1380000   126714   306175      152.91815    0.061191739      33.454812     0.17161921 
 1380004   126714   306175      152.97965              0      33.454635     0.17163748 
Loop time of 152.98 on 12 procs for 10000 steps with 126714 atoms, finish time Thu Jul 25 16:22:08 2024


Pair  time (%) = 15.5933 (10.1931)
Bond  time (%) = 28.2995 (18.4989)
Neigh time (%) = 0.315806 (0.206436)
Comm  time (%) = 0.729277 (0.476715)
Outpt time (%) = 0.0214267 (0.0140062)
Other time (%) = 108.02 (70.6109)

Nlocal:    10559.5 ave 32343 max 0 min
Histogram: 8 0 0 0 0 0 0 0 0 4
Nghost:    276 ave 937 max 0 min
Histogram: 8 0 0 0 0 0 0 1 1 2
Neighs:    38887.5 ave 120210 max 0 min
Histogram: 8 0 0 0 0 0 0 0 0 4

Total # of neighbors = 466650
Ave neighs/atom = 3.6827
Ave special neighs/atom = 0
Neighbor list builds = 21
Dangerous builds = 0
  if "${prs} > 2" then "jump in.carbonbond loop2"
jump in.carbonbond loop1
  run   10000
WARNING: One or more atoms are time integrated more than once (../modify.cpp:304)
Setting up run at Thu Jul 25 16:22:08 2024

Memory usage per processor = 69.4078 Mbytes
    Step    Atoms numbonds            CPU        CPULeft         KinEng            prs 
 1380004   126714   306175              0              0      33.454635     0.17148937 
 1390000   126714   306175      153.94501    0.061602649      33.041034      0.1892568 
 1390004   126714   306175      154.00708              0      33.040663      0.1892612 
Loop time of 154.007 on 12 procs for 10000 steps with 126714 atoms, finish time Thu Jul 25 16:24:43 2024


Pair  time (%) = 15.6844 (10.1842)
Bond  time (%) = 28.2886 (18.3684)
Neigh time (%) = 0.301876 (0.196014)
Comm  time (%) = 0.683231 (0.443636)
Outpt time (%) = 0.0215325 (0.0139815)
Other time (%) = 109.027 (70.7938)

Nlocal:    10559.5 ave 32365 max 0 min
Histogram: 8 0 0 0 0 0 0 0 0 4
Nghost:    276.083 ave 937 max 0 min
Histogram: 8 0 0 0 0 0 0 1 2 1
Neighs:    39206.8 ave 121371 max 0 min
Histogram: 8 0 0 0 0 0 0 0 0 4

Total # of neighbors = 470481
Ave neighs/atom = 3.71294
Ave special neighs/atom = 0
Neighbor list builds = 20
Dangerous builds = 0
  if "${prs} > 2" then "jump in.carbonbond loop2"
jump in.carbonbond loop1
  run   10000
WARNING: One or more atoms are time integrated more than once (../modify.cpp:304)
Setting up run at Thu Jul 25 16:24:43 2024

Memory usage per processor = 69.4078 Mbytes
    Step    Atoms numbonds            CPU        CPULeft         KinEng            prs 
 1390004   126714   306175              0              0      33.040663     0.18907683 
 1400000   126714   306175      155.11416    0.062070493      33.047243     0.20649065 
 1400004   126714   306175      155.17703              0      33.047213       0.206494 
Loop time of 155.177 on 12 procs for 10000 steps with 126714 atoms, finish time Thu Jul 25 16:27:18 2024


Pair  time (%) = 15.8702 (10.2271)
Bond  time (%) = 28.3203 (18.2503)
Neigh time (%) = 0.228809 (0.14745)
Comm  time (%) = 0.67 (0.431765)
Outpt time (%) = 0.199476 (0.128548)
Other time (%) = 109.888 (70.8148)

Nlocal:    10559.5 ave 32376 max 0 min
Histogram: 8 0 0 0 0 0 0 0 0 4
Nghost:    277 ave 934 max 0 min
Histogram: 8 0 0 0 0 0 0 1 1 2
Neighs:    39566.7 ave 122617 max 0 min
Histogram: 8 0 0 0 0 0 0 0 0 4

Total # of neighbors = 474800
Ave neighs/atom = 3.74702
Ave special neighs/atom = 0
Neighbor list builds = 15
Dangerous builds = 0
  if "${prs} > 2" then "jump in.carbonbond loop2"
jump in.carbonbond loop1
  run   10000
WARNING: One or more atoms are time integrated more than once (../modify.cpp:304)
Setting up run at Thu Jul 25 16:27:18 2024

Memory usage per processor = 69.4179 Mbytes
    Step    Atoms numbonds            CPU        CPULeft         KinEng            prs 
 1400004   126714   306175              0              0      33.047213     0.20635406 
 1410000   126714   306175      156.12065     0.06247325      33.007691     0.22578151 
 1410004   126714   306175      156.18229              0       33.00773     0.22578529 
Loop time of 156.182 on 12 procs for 10000 steps with 126714 atoms, finish time Thu Jul 25 16:29:54 2024


Pair  time (%) = 16.0413 (10.2709)
Bond  time (%) = 28.3358 (18.1428)
Neigh time (%) = 0.458474 (0.29355)
Comm  time (%) = 0.785213 (0.502754)
Outpt time (%) = 0.0215262 (0.0137827)
Other time (%) = 110.54 (70.7762)

Nlocal:    10559.5 ave 32371 max 0 min
Histogram: 8 0 0 0 0 0 0 0 0 4
Nghost:    275.083 ave 912 max 0 min
Histogram: 8 0 0 0 0 0 0 1 0 3
Neighs:    39932.2 ave 123774 max 0 min
Histogram: 8 0 0 0 0 0 0 0 0 4

Total # of neighbors = 479187
Ave neighs/atom = 3.78164
Ave special neighs/atom = 0
Neighbor list builds = 30
Dangerous builds = 0
  if "${prs} > 2" then "jump in.carbonbond loop2"
jump in.carbonbond loop1
  run   10000
WARNING: One or more atoms are time integrated more than once (../modify.cpp:304)
Setting up run at Thu Jul 25 16:29:54 2024

Memory usage per processor = 69.4179 Mbytes
    Step    Atoms numbonds            CPU        CPULeft         KinEng            prs 
 1410004   126714   306175              0              0       33.00773     0.22556594 
 1420000   126714   306175      156.89102    0.062781521      32.830486     0.25229739 
 1420004   126714   306175       156.9561              0      32.830505     0.25229753 
Loop time of 156.956 on 12 procs for 10000 steps with 126714 atoms, finish time Thu Jul 25 16:32:31 2024


Pair  time (%) = 16.2192 (10.3336)
Bond  time (%) = 28.3328 (18.0514)
Neigh time (%) = 0.509418 (0.324561)
Comm  time (%) = 0.824783 (0.525486)
Outpt time (%) = 0.025755 (0.0164091)
Other time (%) = 111.044 (70.7485)

Nlocal:    10559.5 ave 32374 max 0 min
Histogram: 8 0 0 0 0 0 0 0 0 4
Nghost:    276.667 ave 910 max 0 min
Histogram: 8 0 0 0 0 0 0 1 0 3
Neighs:    40396.6 ave 125455 max 0 min
Histogram: 8 0 0 0 0 0 0 0 0 4

Total # of neighbors = 484759
Ave neighs/atom = 3.82562
Ave special neighs/atom = 0
Neighbor list builds = 33
Dangerous builds = 0
  if "${prs} > 2" then "jump in.carbonbond loop2"
jump in.carbonbond loop1
  run   10000
WARNING: One or more atoms are time integrated more than once (../modify.cpp:304)
Setting up run at Thu Jul 25 16:32:31 2024

Memory usage per processor = 69.4179 Mbytes
    Step    Atoms numbonds            CPU        CPULeft         KinEng            prs 
 1420004   126714   306175              0              0      32.830505     0.25210805 
 1430000   126714   306175      158.14347    0.063282702      32.613843     0.28599819 
 1430004   126714   306175      158.20732              0      32.613657     0.28600409 
Loop time of 158.207 on 12 procs for 10000 steps with 126714 atoms, finish time Thu Jul 25 16:35:10 2024


Pair  time (%) = 16.5332 (10.4504)
Bond  time (%) = 28.4266 (17.9679)
Neigh time (%) = 0.344434 (0.21771)
Comm  time (%) = 0.733563 (0.463672)
Outpt time (%) = 0.0225485 (0.0142525)
Other time (%) = 112.147 (70.8861)

Nlocal:    10559.5 ave 32385 max 0 min
Histogram: 8 0 0 0 0 0 0 0 0 4
Nghost:    277.167 ave 919 max 0 min
Histogram: 8 0 0 0 0 0 0 1 0 3
Neighs:    40891.2 ave 127026 max 0 min
Histogram: 8 0 0 0 0 0 0 0 0 4

Total # of neighbors = 490694
Ave neighs/atom = 3.87245
Ave special neighs/atom = 0
Neighbor list builds = 22
Dangerous builds = 0
  if "${prs} > 2" then "jump in.carbonbond loop2"
jump in.carbonbond loop1
  run   10000
WARNING: One or more atoms are time integrated more than once (../modify.cpp:304)
Setting up run at Thu Jul 25 16:35:10 2024

Memory usage per processor = 69.4179 Mbytes
    Step    Atoms numbonds            CPU        CPULeft         KinEng            prs 
 1430004   126714   306175              0              0      32.613657     0.28575387 
 1440000   126714   306175      159.86312    0.063970838      32.924207     0.32764524 
 1440004   126714   306175      159.92737              0      32.924307      0.3276648 
Loop time of 159.927 on 12 procs for 10000 steps with 126714 atoms, finish time Thu Jul 25 16:37:50 2024


Pair  time (%) = 16.7401 (10.4673)
Bond  time (%) = 28.4333 (17.7789)
Neigh time (%) = 0.363141 (0.227066)
Comm  time (%) = 0.74584 (0.466362)
Outpt time (%) = 0.0223142 (0.0139527)
Other time (%) = 113.623 (71.0465)

Nlocal:    10559.5 ave 32404 max 0 min
Histogram: 8 0 0 0 0 0 0 0 0 4
Nghost:    278.083 ave 924 max 0 min
Histogram: 8 0 0 0 0 0 0 1 0 3
Neighs:    41491.5 ave 128914 max 0 min
Histogram: 8 0 0 0 0 0 0 0 0 4

Total # of neighbors = 497898
Ave neighs/atom = 3.92931
Ave special neighs/atom = 0
Neighbor list builds = 23
Dangerous builds = 0
