LIGGGHTS (Version LIGGGHTS-PUBLIC 3.8.0, compiled 2018-08-29-09:25:30 by howietu, git commit 28301df8853491784b1d8b90533ea89b8c6af1e8)
#------------------General Settings for Granular Systems--------------------------------------------
atom_style	granular
atom_modify	map           array
boundary	f f f
newton		off
communicate	single        vel       yes
units		si
neighbor        0.0002        bin
neigh_modify    delay         0
echo            both
variable        dt            equal     1e-5
variable        nStepsRun     equal     1.0/${dt}
variable        nStepsRun     equal     1.0/1e-05
variable        writeOutEvery equal     0.2/${dt}
variable        writeOutEvery equal     0.2/1e-05
variable        thermofreq    equal     0.01/${dt}
variable        thermofreq    equal     0.01/1e-05
timestep        ${dt}
timestep        1e-05

#--------------------------Box Information---------------------------------------------------------
variable       skfstl        equal     1/5000
variable       x1y1          equal    -0.5*${skfstl}*2500
variable       x1y1          equal    -0.5*0.0002*2500
variable       x2y2          equal     0.5*${skfstl}*2500
variable       x2y2          equal     0.5*0.0002*2500
variable       z1            equal    -0.5*${skfstl}*2500
variable       z1            equal    -0.5*0.0002*2500
variable       z2            equal     1*${skfstl}*2500
variable       z2            equal     1*0.0002*2500

#--------------------------Model Geometry---------------------------------------------------------
variable        r0            equal     0.02
variable        grwth         equal     0.01                   # Overall growth of each direction
variable        grwFq         equal     1000                    # The growth frequncy, every # of steps
variable        grwNs         equal     20                      # The total number of growth step
variable        grwRt         equal     ${grwth}/${grwNs}       # Growth rate at each growth step
variable        grwRt         equal     0.01/${grwNs}       
variable        grwRt         equal     0.01/20       

#--------------------------Material Information---------------------------------------------------------
variable        cf_pp         equal     1.0
variable        cf_pw         equal     0.2
variable        cf_ww         equal     0.2
variable        cof_pp        equal     0.2
variable        cof_pw        equal     0.1
variable        cof_ww        equal     0.1
variable        corf_pp       equal     0.
variable        corf_pw       equal     0.2
variable        corf_ww       equal     0.2
variable        Yp            equal     1e+7
variable        Yw            equal     5.1e+6

#---------------------Generate Box----------------------------------------
#region          reg block ${x1y1} ${x2y2} ${x1y1} ${x2y2} ${z1} ${z2}  units box
#create_box      2 reg
read_restart    pack.restart
  orthogonal box = (-0.25 -0.25 -0.25) to (0.25 0.25 0.5)
  4 by 4 by 5 MPI processor grid
  1800 atoms

#---------------------Assign Material Properties to particle and wall----------------------------------------
fix 		m1 all property/global youngsModulus peratomtype ${Yp} ${Yw}
fix 		m1 all property/global youngsModulus peratomtype 10000000 ${Yw}
fix 		m1 all property/global youngsModulus peratomtype 10000000 5100000
fix 		m2 all property/global poissonsRatio peratomtype 0.3 0.3
fix 		m3 all property/global coefficientRestitution peratomtypepair 2 ${cf_pp} ${cf_pw} ${cf_pw} ${cf_ww}
fix 		m3 all property/global coefficientRestitution peratomtypepair 2 1 ${cf_pw} ${cf_pw} ${cf_ww}
fix 		m3 all property/global coefficientRestitution peratomtypepair 2 1 0.2 ${cf_pw} ${cf_ww}
fix 		m3 all property/global coefficientRestitution peratomtypepair 2 1 0.2 0.2 ${cf_ww}
fix 		m3 all property/global coefficientRestitution peratomtypepair 2 1 0.2 0.2 0.2
fix             m4 all property/global coefficientFriction peratomtypepair 2 ${cof_pp} ${cof_pw} ${cof_pw} ${cof_ww}
fix             m4 all property/global coefficientFriction peratomtypepair 2 0.2 ${cof_pw} ${cof_pw} ${cof_ww}
fix             m4 all property/global coefficientFriction peratomtypepair 2 0.2 0.1 ${cof_pw} ${cof_ww}
fix             m4 all property/global coefficientFriction peratomtypepair 2 0.2 0.1 0.1 ${cof_ww}
fix             m4 all property/global coefficientFriction peratomtypepair 2 0.2 0.1 0.1 0.1
fix             m5 all property/global coefficientRollingFriction peratomtypepair 2 ${corf_pp} ${corf_pw} ${corf_pw} ${corf_ww}
fix             m5 all property/global coefficientRollingFriction peratomtypepair 2 0 ${corf_pw} ${corf_pw} ${corf_ww}
fix             m5 all property/global coefficientRollingFriction peratomtypepair 2 0 0.2 ${corf_pw} ${corf_ww}
fix             m5 all property/global coefficientRollingFriction peratomtypepair 2 0 0.2 0.2 ${corf_ww}
fix             m5 all property/global coefficientRollingFriction peratomtypepair 2 0 0.2 0.2 0.2
fix             m6 all property/global cohesionEnergyDensity peratomtypepair 2 0 0 0 0

#Define pair style
pair_style gran model hertz tangential history cohesion sjkr #Hertzian with cohesion
pair_coeff	* *

#fix Bsphere all mesh/surface file sphere.stl type 2 scale 0.0125
#fix wall all wall/gran model hertz tangential history rolling_friction epsd2 mesh n_meshes 1 meshes Bsphere

fix xwalls1 all wall/gran model hertz tangential history primitive type 1 xplane ${x1y1}
fix xwalls1 all wall/gran model hertz tangential history primitive type 1 xplane -0.25
Resetting global state of Fix history_xwalls1 Style property/atom from restart file info
Resetting per-atom state of Fix history_xwalls1 Style property/atom from restart file info
fix xwalls2 all wall/gran model hertz tangential history primitive type 1 xplane ${x2y2}
fix xwalls2 all wall/gran model hertz tangential history primitive type 1 xplane 0.25
Resetting global state of Fix history_xwalls2 Style property/atom from restart file info
Resetting per-atom state of Fix history_xwalls2 Style property/atom from restart file info
fix ywalls1 all wall/gran model hertz tangential history primitive type 1 yplane ${x1y1}
fix ywalls1 all wall/gran model hertz tangential history primitive type 1 yplane -0.25
Resetting global state of Fix history_ywalls1 Style property/atom from restart file info
Resetting per-atom state of Fix history_ywalls1 Style property/atom from restart file info
fix ywalls2 all wall/gran model hertz tangential history primitive type 1 yplane ${x2y2}
fix ywalls2 all wall/gran model hertz tangential history primitive type 1 yplane 0.25
Resetting global state of Fix history_ywalls2 Style property/atom from restart file info
Resetting per-atom state of Fix history_ywalls2 Style property/atom from restart file info
fix zwalls2 all wall/gran model hertz tangential history primitive type 1 zplane ${z1}
fix zwalls2 all wall/gran model hertz tangential history primitive type 1 zplane -0.25
Resetting global state of Fix history_zwalls2 Style property/atom from restart file info
Resetting per-atom state of Fix history_zwalls2 Style property/atom from restart file info

#fix pts1 all particletemplate/sphere 15485863 atom_type 1 density constant 2500 radius constant ${r0}
#fix pdd1 all particledistribution/discrete 86028157 1 pts1 1

#fix ins_mesh all mesh/surface/planar file ins_face.stl heal auto_remove_duplicates type 2 scale 0.0125
#fix ins all insert/stream seed 86028121 distributiontemplate pdd1 #                maxattempt 200 nparticles 1200 particlerate 180 overlapcheck yes all_in yes vel constant 0 0 -2.0 #                insertion_face ins_mesh extrude_length 0.2

#apply nve integration to all particles
fix		integr all nve/sphere
fix		gravi all  gravity 9.81 vector 0.0 0.0 -1.0

#------------------------Output Settings------------------------------------------------------
# Output to screen
compute        ker   all   erotate/sphere            # Compute the rotational kinetic energy of all particles
compute        prs   all   pressure thermo_temp                  # Total pressure on ghost particles
thermo_style	custom step atoms ke c_ker vol c_prs
thermo		${thermofreq}
thermo		1000
thermo_modify	lost ignore norm no
# Output to file
dump              2 all custom ${writeOutEvery} post/cycle.lmp id type x y z radius fx fy fz
dump              2 all custom 20000 post/cycle.lmp id type x y z radius fx fy fz
dump_modify       2 format "%7.0g %4.0g %15.10g %15.10g %15.10g %15.10g %15.10g %15.10g %15.10g"
#dump		dmp all custom/vtk ${writeOutEvery} post/dump*.sphere.vtk type mass x y z id vx vy vz fx fy fz omegax omegay omegaz radius
#dump            dumpSphere all stl ${writeOutEvery} post/dump_Sphere*.stl Bsphere

#------------------------Run the calculation------------------------------------------------------
# 1. Run first period: relax the system
run		${writeOutEvery}
run		20000
Resetting global state of Fix contacthistory Style contacthistory from restart file info
Resetting per-atom state of Fix contacthistory Style contacthistory from restart file info
Setting up run at Thu Sep  6 15:55:30 2018

Memory usage per processor = 9.54792 Mbytes
    Step    Atoms         KinEng            ker         Volume            prs 
 1200000     1800    0.021356579   0.0098078858         0.1875      1188.9087 
 1201000     1800    0.023978665    0.011235997         0.1875      1190.1897 
 1202000     1800    0.015821426   0.0082048575         0.1875      1190.7974 
 1203000     1800   0.0083712946   0.0076953329         0.1875      1187.7214 
 1204000     1800   0.0078547338   0.0066866668         0.1875      1186.9293 
 1205000     1800   0.0070133563   0.0056262116         0.1875      1187.4056 
 1206000     1800   0.0058496429   0.0044845459         0.1875      1189.0323 
 1207000     1800   0.0048792669   0.0036569954         0.1875      1190.9296 
 1208000     1800   0.0044166186   0.0029661192         0.1875      1189.5837 
 1209000     1800    0.004915807    0.002956956         0.1875      1187.4218 
 1210000     1800   0.0060668808   0.0030667463         0.1875      1187.0356 
 1211000     1800   0.0066631525   0.0033626011         0.1875      1187.2359 
 1212000     1800   0.0079130606   0.0039972576         0.1875      1186.7429 
 1213000     1800   0.0087787337   0.0043265897         0.1875      1188.5602 
 1214000     1800   0.0047076951   0.0034162791         0.1875      1190.1117 
 1215000     1800   0.0041196989   0.0029704606         0.1875      1190.7223 
 1216000     1800    0.003336636   0.0028872697         0.1875       1188.839 
 1217000     1800   0.0034080427   0.0029194291         0.1875      1186.6734 
 1218000     1800   0.0032331032      0.0027077         0.1875      1186.0103 
 1219000     1800   0.0036575091   0.0027019701         0.1875      1187.5764 
 1220000     1800   0.0027336403   0.0024163755         0.1875      1188.6569 
Loop time of 1.90655 on 80 procs for 20000 steps with 1800 atoms, finish time Thu Sep  6 15:55:32 2018


Pair  time (%) = 0.275616 (14.4562)
Neigh time (%) = 0.00798959 (0.41906)
Comm  time (%) = 0.402517 (21.1123)
Outpt time (%) = 0.00710484 (0.372654)
Other time (%) = 1.21333 (63.6398)

Nlocal:    22.5 ave 55 max 0 min
Histogram: 32 0 1 3 9 3 1 13 17 1
Nghost:    50.2125 ave 159 max 0 min
Histogram: 32 0 4 12 10 6 8 3 1 4
Neighs:    93.5 ave 261 max 0 min
Histogram: 32 0 4 10 2 3 7 15 6 1

Total # of neighbors = 7480
Ave neighs/atom = 4.15556
Neighbor list builds = 397
Dangerous builds = 0
# 2. Run second period: growth the particle in all direction
variable          nt   equal    1
label  loop2
  variable        dd    equal   2*(${r0}+${nt}*${grwRt})
  variable        dd    equal   2*(0.02+${nt}*${grwRt})
  variable        dd    equal   2*(0.02+1*${grwRt})
  variable        dd    equal   2*(0.02+1*0.0005)
  set            type  1  diameter  ${dd}
  set            type  1  diameter  0.041
  1800 settings made for diameter
  run		  ${writeOutEvery}
  run		  20000
Setting up run at Thu Sep  6 15:55:32 2018

Memory usage per processor = 9.54817 Mbytes
    Step    Atoms         KinEng            ker         Volume            prs 
 1220000     1800   0.0029438316   0.0027339071         0.1875      13065.667 
 1221000     1800      17.896088     0.86914157         0.1875      8296.2237 
 1222000     1800      28.769371      1.1414261         0.1875       5402.769 
 1223000     1800      28.708662      1.4630333         0.1875      3426.9535 
 1224000     1800      25.060856      1.6090656         0.1875      2293.3431 
 1225000     1800      20.492079      1.5170188         0.1875      1610.8317 
 1226000     1800      15.807438      1.3503767         0.1875         1185.3 
 1227000     1800      11.513205      1.2004072         0.1875      944.69862 
 1228000     1800      7.9883317      1.0931232         0.1875       793.1024 
 1229000     1800      5.2984161     0.98408389         0.1875      732.11091 
 1230000     1800      3.4997877     0.88222151         0.1875       710.1096 
 1231000     1800      2.5039896     0.81393751         0.1875      739.43227 
 1232000     1800      2.2091534     0.75473084         0.1875      796.88208 
 1233000     1800      2.4550478     0.69687283         0.1875      895.67035 
 1234000     1800      3.0387744     0.65372354         0.1875      1027.6579 
 1235000     1800      3.7796497     0.61043961         0.1875      1160.5967 
 1236000     1800      4.6559908      0.5880189         0.1875      1305.2876 
 1237000     1800      5.4800885     0.56583833         0.1875      1453.0953 
 1238000     1800      6.2449349     0.54904037         0.1875      1605.0696 
 1239000     1800      6.8078895     0.51000314         0.1875       1759.933 
 1240000     1800      7.1620277     0.49884936         0.1875       1871.494 
Loop time of 3.5348 on 80 procs for 20000 steps with 1800 atoms, finish time Thu Sep  6 15:55:36 2018


Pair  time (%) = 0.189647 (5.36514)
Neigh time (%) = 0.0314882 (0.890806)
Comm  time (%) = 1.19533 (33.8162)
Outpt time (%) = 0.00633198 (0.179133)
Other time (%) = 2.112 (59.7488)

Nlocal:    22.5 ave 47 max 0 min
Histogram: 27 5 0 0 2 7 7 4 22 6
Nghost:    55.25 ave 144 max 0 min
Histogram: 21 7 6 6 11 8 6 8 3 4
Neighs:    67.3375 ave 210 max 0 min
Histogram: 34 14 0 0 0 3 8 11 7 3

Total # of neighbors = 5387
Ave neighs/atom = 2.99278
Neighbor list builds = 1727
Dangerous builds = 0
  variable        nt    equal   ${nt}+1
  variable        nt    equal   1+1
  if "${nt} > ${grwNs}" then "jump cycle.in loop3"
jump cycle.in loop2
  variable        dd    equal   2*(${r0}+${nt}*${grwRt})
  variable        dd    equal   2*(0.02+${nt}*${grwRt})
  variable        dd    equal   2*(0.02+2*${grwRt})
  variable        dd    equal   2*(0.02+2*0.0005)
  set            type  1  diameter  ${dd}
  set            type  1  diameter  0.042
  1800 settings made for diameter
  run		  ${writeOutEvery}
  run		  20000
Setting up run at Thu Sep  6 15:55:36 2018

Memory usage per processor = 9.5482 Mbytes
    Step    Atoms         KinEng            ker         Volume            prs 
 1240000     1800      7.6989641     0.56272549         0.1875      11602.211 
 1241000     1800      15.469133      1.5383048         0.1875      8342.1793 
 1242000     1800      17.087308      1.6838772         0.1875      6707.2494 
 1243000     1800      14.487011      1.7006593         0.1875      5377.8216 
 1244000     1800       11.55762      1.4999561         0.1875      4428.3086 
 1245000     1800      9.0123706      1.3427633         0.1875       3717.748 
 1246000     1800      6.9894815      1.1791727         0.1875      3200.1875 
 1247000     1800      5.0704447     0.98507682         0.1875       2874.553 
 1248000     1800      3.5257289     0.83528763         0.1875      2648.6312 
 1249000     1800      2.4560132      0.7409858         0.1875      2522.5346 
 1250000     1800      1.9772592     0.68963667         0.1875      2453.6335 
 1251000     1800      1.9236039     0.70526605         0.1875      2441.7446 
 1252000     1800      1.8356466     0.55455504         0.1875      2504.9158 
 1253000     1800      1.9653474     0.50404087         0.1875      2601.1774 
 1254000     1800      2.0847349     0.45852275         0.1875      2737.9272 
 1255000     1800      2.1190954     0.42282446         0.1875      2905.6497 
 1256000     1800      1.9990219     0.40781874         0.1875      3061.4173 
 1257000     1800       1.909402     0.39420311         0.1875      3172.6699 
 1258000     1800      1.8356541     0.36752284         0.1875      3228.7857 
 1259000     1800      1.7790028      0.3540403         0.1875      3240.8073 
 1260000     1800       1.681595     0.34355214         0.1875      3210.1811 
Loop time of 2.12772 on 80 procs for 20000 steps with 1800 atoms, finish time Thu Sep  6 15:55:38 2018


Pair  time (%) = 0.238024 (11.1868)
Neigh time (%) = 0.0364381 (1.71254)
Comm  time (%) = 0.698875 (32.8462)
Outpt time (%) = 0.00601873 (0.282872)
Other time (%) = 1.14837 (53.9717)

Nlocal:    22.5 ave 44 max 0 min
Histogram: 28 4 0 0 0 0 2 19 16 11
Nghost:    55.75 ave 146 max 0 min
Histogram: 19 11 2 8 7 13 7 6 3 4
Neighs:    82.5 ave 246 max 0 min
Histogram: 32 0 3 8 8 5 16 5 2 1

Total # of neighbors = 6600
Ave neighs/atom = 3.66667
Neighbor list builds = 1979
Dangerous builds = 0
  variable        nt    equal   ${nt}+1
  variable        nt    equal   2+1
  if "${nt} > ${grwNs}" then "jump cycle.in loop3"
jump cycle.in loop2
  variable        dd    equal   2*(${r0}+${nt}*${grwRt})
  variable        dd    equal   2*(0.02+${nt}*${grwRt})
  variable        dd    equal   2*(0.02+3*${grwRt})
  variable        dd    equal   2*(0.02+3*0.0005)
  set            type  1  diameter  ${dd}
  set            type  1  diameter  0.043
  1800 settings made for diameter
  run		  ${writeOutEvery}
  run		  20000
Setting up run at Thu Sep  6 15:55:38 2018

Memory usage per processor = 9.54823 Mbytes
    Step    Atoms         KinEng            ker         Volume            prs 
 1260000     1800      1.8045915     0.38644571         0.1875      15815.738 
 1261000     1800      14.101355      1.3141604         0.1875      11503.914 
 1262000     1800      21.101037      1.4703516         0.1875      9495.4947 
 1263000     1800       23.49671      1.5656065         0.1875      7640.8692 
 1264000     1800      22.521072      1.7166315         0.1875      6168.9478 
 1265000     1800      19.940071      1.7179928         0.1875      5051.6233 
 1266000     1800      16.708949      1.6311755         0.1875      4191.7406 
 1267000     1800      13.572626      1.6113624         0.1875      3513.8427 
 1268000     1800      10.591786      1.6498554         0.1875      3010.2497 
 1269000     1800      8.5825532      1.6019295         0.1875      2542.4365 
 1270000     1800      7.1126159      1.6538391         0.1875      2101.0329 
 1271000     1800      5.5347119       1.438661         0.1875      1694.1455 
 1272000     1800       3.545487      1.1814907         0.1875      1380.0872 
 1273000     1800      2.3319243      1.0003362         0.1875      1159.7616 
 1274000     1800      1.8732456     0.79804059         0.1875      1041.3501 
 1275000     1800      2.1403562      0.6720372         0.1875      1007.9304 
 1276000     1800      2.9689901     0.60676204         0.1875      1043.9708 
 1277000     1800      4.0348262     0.58281429         0.1875      1202.4495 
 1278000     1800      4.9951647     0.53588691         0.1875      1460.2773 
 1279000     1800      5.5354243     0.49923061         0.1875      1810.0485 
 1280000     1800      5.4558708     0.48482278         0.1875      2211.8488 
Loop time of 2.07327 on 80 procs for 20000 steps with 1800 atoms, finish time Thu Sep  6 15:55:39 2018


Pair  time (%) = 0.225161 (10.8602)
Neigh time (%) = 0.0345436 (1.66614)
Comm  time (%) = 0.729021 (35.1629)
Outpt time (%) = 0.00524877 (0.253164)
Other time (%) = 1.0793 (52.0577)

Nlocal:    22.5 ave 40 max 0 min
Histogram: 16 4 8 4 0 0 1 4 26 17
Nghost:    58.2 ave 137 max 0 min
Histogram: 16 4 8 10 7 13 6 8 4 4
Neighs:    76.3 ave 183 max 0 min
Histogram: 32 0 0 1 5 6 14 11 8 3

Total # of neighbors = 6104
Ave neighs/atom = 3.39111
Neighbor list builds = 1877
Dangerous builds = 0
  variable        nt    equal   ${nt}+1
  variable        nt    equal   3+1
  if "${nt} > ${grwNs}" then "jump cycle.in loop3"
jump cycle.in loop2
  variable        dd    equal   2*(${r0}+${nt}*${grwRt})
  variable        dd    equal   2*(0.02+${nt}*${grwRt})
  variable        dd    equal   2*(0.02+4*${grwRt})
  variable        dd    equal   2*(0.02+4*0.0005)
  set            type  1  diameter  ${dd}
  set            type  1  diameter  0.044
  1800 settings made for diameter
  run		  ${writeOutEvery}
  run		  20000
Setting up run at Thu Sep  6 15:55:40 2018

Memory usage per processor = 9.54823 Mbytes
    Step    Atoms         KinEng            ker         Volume            prs 
 1280000     1800      5.8454338     0.54388129         0.1875      13856.013 
 1281000     1800      7.3630104      1.2849583         0.1875      10443.193 
 1282000     1800      13.284144      1.3030921         0.1875       8942.004 
 1283000     1800      16.629365      1.3717623         0.1875      7327.0185 
 1284000     1800      16.470438      1.4511515         0.1875       5891.711 
 1285000     1800      14.689809      1.3965509         0.1875      4710.2718 
 1286000     1800      12.268292      1.2833039         0.1875      3792.2323 
 1287000     1800      9.5786173       1.149081         0.1875      3088.5115 
 1288000     1800      6.8653562      1.0022817         0.1875      2594.2551 
 1289000     1800      4.6038283       0.881623         0.1875      2241.4356 
 1290000     1800      2.8176947     0.75936008         0.1875      2000.9364 
 1291000     1800      1.6082838     0.64419949         0.1875      1861.2025 
 1292000     1800      1.0661162     0.53376924         0.1875      1784.7369 
 1293000     1800      1.1354222     0.45930821         0.1875      1794.0086 
 1294000     1800      1.6875423     0.41841287         0.1875      1888.9069 
 1295000     1800      2.4788951     0.39760694         0.1875      2076.1935 
 1296000     1800      3.1936965     0.38524071         0.1875      2340.3225 
 1297000     1800      3.6381223     0.37917379         0.1875      2635.3023 
 1298000     1800      3.6970006     0.36822813         0.1875        2939.09 
 1299000     1800      3.4058295     0.33603838         0.1875      3234.7084 
 1300000     1800      2.8517438     0.33083786         0.1875       3467.098 
Loop time of 1.9708 on 80 procs for 20000 steps with 1800 atoms, finish time Thu Sep  6 15:55:41 2018


Pair  time (%) = 0.245599 (12.4619)
Neigh time (%) = 0.0299014 (1.51722)
Comm  time (%) = 0.748581 (37.9836)
Outpt time (%) = 0.00669511 (0.339715)
Other time (%) = 0.940025 (47.6976)

Nlocal:    22.5 ave 41 max 0 min
Histogram: 16 0 4 12 0 0 0 25 20 3
Nghost:    59.2375 ave 131 max 0 min
Histogram: 16 0 7 9 13 7 12 8 0 8
Neighs:    83.4875 ave 183 max 0 min
Histogram: 24 8 0 0 1 9 9 16 9 4

Total # of neighbors = 6679
Ave neighs/atom = 3.71056
Neighbor list builds = 1597
Dangerous builds = 0
  variable        nt    equal   ${nt}+1
  variable        nt    equal   4+1
  if "${nt} > ${grwNs}" then "jump cycle.in loop3"
jump cycle.in loop2
  variable        dd    equal   2*(${r0}+${nt}*${grwRt})
  variable        dd    equal   2*(0.02+${nt}*${grwRt})
  variable        dd    equal   2*(0.02+5*${grwRt})
  variable        dd    equal   2*(0.02+5*0.0005)
  set            type  1  diameter  ${dd}
  set            type  1  diameter  0.045
  1800 settings made for diameter
  run		  ${writeOutEvery}
  run		  20000
Setting up run at Thu Sep  6 15:55:41 2018

Memory usage per processor = 9.54823 Mbytes
    Step    Atoms         KinEng            ker         Volume            prs 
 1300000     1800      3.0506334     0.37018123         0.1875      17065.809 
 1301000     1800      10.701941       1.295645         0.1875      12989.797 
 1302000     1800      18.178557      1.3949344         0.1875      11199.599 
 1303000     1800      21.845139      1.4242267         0.1875      9275.9588 
 1304000     1800      21.635133      1.4793295         0.1875      7678.5049 
 1305000     1800      19.660061      1.5076431         0.1875      6325.4574 
 1306000     1800      16.802878      1.4539244         0.1875      5251.6433 
 1307000     1800      13.695337      1.3240357         0.1875       4406.278 
 1308000     1800      10.691443      1.2113505         0.1875      3751.8965 
 1309000     1800      7.9313961      1.1494401         0.1875      3215.8479 
 1310000     1800      5.4689864      1.0725814         0.1875      2814.9802 
 1311000     1800        3.50655       0.984661         0.1875      2499.6688 
 1312000     1800      2.0127584     0.81402027         0.1875       2267.985 
 1313000     1800      1.1947742     0.70332564         0.1875        2096.87 
 1314000     1800      1.0578707     0.59949721         0.1875      2016.5025 
 1315000     1800      1.4440179     0.52010059         0.1875      2030.8793 
 1316000     1800      2.2220853     0.45302127         0.1875      2130.3473 
 1317000     1800      3.0718919     0.40758696         0.1875       2312.165 
 1318000     1800       3.792889     0.37674604         0.1875      2584.0398 
 1319000     1800       4.172698     0.37226345         0.1875      2910.3503 
 1320000     1800      4.0445882     0.36995929         0.1875      3259.6628 
Loop time of 2.01766 on 80 procs for 20000 steps with 1800 atoms, finish time Thu Sep  6 15:55:43 2018


Pair  time (%) = 0.246169 (12.2007)
Neigh time (%) = 0.0321831 (1.59508)
Comm  time (%) = 0.815444 (40.4154)
Outpt time (%) = 0.00592607 (0.293711)
Other time (%) = 0.917934 (45.4951)

Nlocal:    22.5 ave 36 max 0 min
Histogram: 15 1 0 0 2 10 5 10 25 12
Nghost:    61.0875 ave 125 max 6 min
Histogram: 16 0 5 9 14 7 17 4 0 8
Neighs:    79.8 ave 156 max 0 min
Histogram: 16 3 9 4 0 9 6 12 11 10

Total # of neighbors = 6384
Ave neighs/atom = 3.54667
Neighbor list builds = 1770
Dangerous builds = 0
  variable        nt    equal   ${nt}+1
  variable        nt    equal   5+1
  if "${nt} > ${grwNs}" then "jump cycle.in loop3"
jump cycle.in loop2
  variable        dd    equal   2*(${r0}+${nt}*${grwRt})
  variable        dd    equal   2*(0.02+${nt}*${grwRt})
  variable        dd    equal   2*(0.02+6*${grwRt})
  variable        dd    equal   2*(0.02+6*0.0005)
  set            type  1  diameter  ${dd}
  set            type  1  diameter  0.046
  1800 settings made for diameter
  run		  ${writeOutEvery}
  run		  20000
Setting up run at Thu Sep  6 15:55:43 2018

Memory usage per processor = 9.54823 Mbytes
    Step    Atoms         KinEng            ker         Volume            prs 
 1320000     1800      4.3202638     0.41293388         0.1875      16581.011 
 1321000     1800      7.1418451       1.167406         0.1875      12913.076 
 1322000     1800      12.227095      1.1758613         0.1875       11661.05 
 1323000     1800      16.334987      1.2003218         0.1875      10050.045 
 1324000     1800       16.62017      1.2958229         0.1875      8645.2922 
 1325000     1800      15.131051      1.3051614         0.1875      7441.9077 
 1326000     1800      13.074607       1.298706         0.1875      6369.8565 
 1327000     1800      10.729911      1.1942236         0.1875      5529.6759 
 1328000     1800      8.3041821      1.0761019         0.1875      4853.8676 
 1329000     1800      6.0404356     0.92376003         0.1875      4308.9608 
 1330000     1800       3.995079     0.77113405         0.1875      3899.9664 
 1331000     1800      2.4150484     0.64441479         0.1875      3585.7501 
 1332000     1800      1.3481512     0.51808681         0.1875      3374.4011 
 1333000     1800     0.79304254     0.42538984         0.1875      3258.7773 
 1334000     1800       0.787503     0.35203522         0.1875      3248.7541 
 1335000     1800      1.1849968     0.30235635         0.1875      3312.0063 
 1336000     1800      1.7980809     0.28446354         0.1875      3471.1572 
 1337000     1800      2.4136909     0.27686111         0.1875      3680.9066 
 1338000     1800      2.8185666     0.27781281         0.1875      3947.1072 
 1339000     1800      2.9170881     0.28147377         0.1875      4230.3819 
 1340000     1800      2.6525701      0.2775733         0.1875      4506.0682 
Loop time of 1.98437 on 80 procs for 20000 steps with 1800 atoms, finish time Thu Sep  6 15:55:45 2018


Pair  time (%) = 0.255874 (12.8945)
Neigh time (%) = 0.0291553 (1.46925)
Comm  time (%) = 0.822938 (41.471)
Outpt time (%) = 0.00517214 (0.260644)
Other time (%) = 0.871231 (43.9047)

Nlocal:    22.5 ave 33 max 1 min
Histogram: 16 0 0 0 0 1 5 13 29 16
Nghost:    61.9125 ave 119 max 10 min
Histogram: 14 2 5 3 22 2 18 6 0 8
Neighs:    83.7875 ave 157 max 0 min
Histogram: 16 0 0 5 8 11 11 12 10 7

Total # of neighbors = 6703
Ave neighs/atom = 3.72389
Neighbor list builds = 1571
Dangerous builds = 0
  variable        nt    equal   ${nt}+1
  variable        nt    equal   6+1
  if "${nt} > ${grwNs}" then "jump cycle.in loop3"
jump cycle.in loop2
  variable        dd    equal   2*(${r0}+${nt}*${grwRt})
  variable        dd    equal   2*(0.02+${nt}*${grwRt})
  variable        dd    equal   2*(0.02+7*${grwRt})
  variable        dd    equal   2*(0.02+7*0.0005)
  set            type  1  diameter  ${dd}
  set            type  1  diameter  0.047
  1800 settings made for diameter
  run		  ${writeOutEvery}
  run		  20000
Setting up run at Thu Sep  6 15:55:45 2018

Memory usage per processor = 9.54823 Mbytes
    Step    Atoms         KinEng            ker         Volume            prs 
 1340000     1800      2.8293518     0.30908492         0.1875      19333.434 
 1341000     1800      7.8034457      1.1945347         0.1875      15270.707 
 1342000     1800       13.00964      1.1777174         0.1875       13958.66 
 1343000     1800      16.540341      1.0990032         0.1875       12330.33 
 1344000     1800      16.886811      1.2000989         0.1875      10848.189 
 1345000     1800      15.746617      1.2451586         0.1875      9577.1873 
 1346000     1800      13.886857      1.2447121         0.1875      8462.6684 
 1347000     1800      11.567236      1.1965609         0.1875      7542.7715 
 1348000     1800      9.1972177      1.1838672         0.1875      6766.6972 
 1349000     1800      7.0068609      1.1094212         0.1875       6087.133 
 1350000     1800      5.1485355     0.99672577         0.1875      5479.6992 
 1351000     1800      3.4856245     0.88751219         0.1875      5004.5187 
 1352000     1800      2.1395086      0.7268033         0.1875      4624.0284 
 1353000     1800      1.1824199     0.58924093         0.1875      4372.5013 
 1354000     1800      0.7227485     0.46797402         0.1875      4225.7261 
 1355000     1800     0.70157147       0.375269         0.1875      4179.2423 
 1356000     1800      1.0734278     0.30131629         0.1875      4214.2796 
 1357000     1800      1.6258128     0.24814079         0.1875      4341.0508 
 1358000     1800      2.1109351     0.23743214         0.1875      4541.4053 
 1359000     1800      2.3475441     0.24132545         0.1875      4791.1882 
 1360000     1800      2.3149583     0.22798087         0.1875      5055.9813 
Loop time of 1.97444 on 80 procs for 20000 steps with 1800 atoms, finish time Thu Sep  6 15:55:47 2018


Pair  time (%) = 0.263209 (13.3309)
Neigh time (%) = 0.0260391 (1.31881)
Comm  time (%) = 0.824211 (41.7441)
Outpt time (%) = 0.00550385 (0.278755)
Other time (%) = 0.855474 (43.3275)

Nlocal:    22.5 ave 31 max 4 min
Histogram: 8 6 2 0 0 0 1 23 31 9
Nghost:    63.7375 ave 112 max 18 min
Histogram: 5 7 8 9 12 10 16 2 3 8
Neighs:    83.7875 ave 150 max 4 min
Histogram: 16 0 0 0 7 16 12 17 10 2

Total # of neighbors = 6703
Ave neighs/atom = 3.72389
Neighbor list builds = 1395
Dangerous builds = 0
  variable        nt    equal   ${nt}+1
  variable        nt    equal   7+1
  if "${nt} > ${grwNs}" then "jump cycle.in loop3"
jump cycle.in loop2
  variable        dd    equal   2*(${r0}+${nt}*${grwRt})
  variable        dd    equal   2*(0.02+${nt}*${grwRt})
  variable        dd    equal   2*(0.02+8*${grwRt})
  variable        dd    equal   2*(0.02+8*0.0005)
  set            type  1  diameter  ${dd}
  set            type  1  diameter  0.048
  1800 settings made for diameter
  run		  ${writeOutEvery}
  run		  20000
Setting up run at Thu Sep  6 15:55:47 2018

Memory usage per processor = 9.54823 Mbytes
    Step    Atoms         KinEng            ker         Volume            prs 
 1360000     1800      2.4658878      0.2532884         0.1875      20373.264 
 1361000     1800      5.8523574      1.1039224         0.1875      16409.235 
 1362000     1800      10.252339      0.9752564         0.1875      15163.469 
 1363000     1800      13.973648     0.97021919         0.1875      13670.917 
 1364000     1800       15.04885     0.99374803         0.1875      12270.315 
 1365000     1800       14.52909      1.0190323         0.1875      11022.309 
 1366000     1800      12.968786      1.0164366         0.1875      9905.1886 
 1367000     1800      11.051754     0.97742646         0.1875       8935.756 
 1368000     1800      9.0021627     0.96370264         0.1875      8100.3818 
 1369000     1800      7.0198639     0.90738126         0.1875       7384.706 
 1370000     1800      5.2487083     0.85618314         0.1875       6776.532 
 1371000     1800      3.7370831     0.77659933         0.1875      6265.6727 
 1372000     1800      2.5907375     0.65754682         0.1875      5841.3543 
 1373000     1800      1.6934224     0.54201674         0.1875      5495.4432 
 1374000     1800      1.0901432     0.47119861         0.1875      5223.8999 
 1375000     1800     0.76397679     0.35349451         0.1875      5047.6691 
 1376000     1800      0.7244894     0.24630283         0.1875      4990.4313 
 1377000     1800     0.93114776     0.17755988         0.1875       5022.468 
 1378000     1800      1.2026982     0.14974963         0.1875      5143.1829 
 1379000     1800      1.3375261     0.14126798         0.1875       5312.291 
 1380000     1800      1.2821258     0.13455616         0.1875      5511.1028 
Loop time of 1.97039 on 80 procs for 20000 steps with 1800 atoms, finish time Thu Sep  6 15:55:49 2018


Pair  time (%) = 0.270932 (13.7502)
Neigh time (%) = 0.0237054 (1.20308)
Comm  time (%) = 0.818792 (41.5548)
Outpt time (%) = 0.0215641 (1.09441)
Other time (%) = 0.835395 (42.3975)

Nlocal:    22.5 ave 30 max 11 min
Histogram: 4 7 5 0 2 7 23 17 13 2
Nghost:    63.7875 ave 106 max 25 min
Histogram: 4 10 6 18 2 15 13 0 1 11
Neighs:    85.95 ave 139 max 24 min
Histogram: 8 6 2 1 12 14 14 9 11 3

Total # of neighbors = 6876
Ave neighs/atom = 3.82
Neighbor list builds = 1269
Dangerous builds = 0
  variable        nt    equal   ${nt}+1
  variable        nt    equal   8+1
  if "${nt} > ${grwNs}" then "jump cycle.in loop3"
jump cycle.in loop2
  variable        dd    equal   2*(${r0}+${nt}*${grwRt})
  variable        dd    equal   2*(0.02+${nt}*${grwRt})
  variable        dd    equal   2*(0.02+9*${grwRt})
  variable        dd    equal   2*(0.02+9*0.0005)
  set            type  1  diameter  ${dd}
  set            type  1  diameter  0.049
  1800 settings made for diameter
  run		  ${writeOutEvery}
  run		  20000
Setting up run at Thu Sep  6 15:55:49 2018

Memory usage per processor = 9.54823 Mbytes
    Step    Atoms         KinEng            ker         Volume            prs 
 1380000     1800      1.3639397     0.14916873         0.1875      21694.012 
 1381000     1800      5.7956958     0.95822575         0.1875      17284.914 
 1382000     1800      10.048469     0.88112396         0.1875      16134.236 
 1383000     1800      13.762999     0.93140997         0.1875      14625.138 
 1384000     1800      15.068572      1.0590005         0.1875      13263.708 
 1385000     1800      14.695917       1.120262         0.1875      11988.666 
 1386000     1800      13.472947      1.2192188         0.1875      10797.571 
 1387000     1800      11.803638      1.2118812         0.1875      9760.7145 
 1388000     1799      9.8636039      1.1508577         0.1875      8814.4609 
 1389000     1799      7.8693685      1.0749014         0.1875      7995.4133 
 1390000     1799      5.9523737     0.94088097         0.1875      7258.5337 
 1391000     1799      4.2176804     0.82572876         0.1875      6650.0271 
 1392000     1798      2.7785965     0.73643578         0.1875      6146.5618 
 1393000     1798      1.6614687      0.6228998         0.1875       5762.379 
 1394000     1798     0.94891633     0.47017402         0.1875      5481.1346 
 1395000     1798     0.59872906     0.31603866         0.1875      5325.9313 
 1396000     1798     0.65701617     0.20852544         0.1875      5283.0547 
 1397000     1798      1.0289134     0.15924743         0.1875      5354.4161 
 1398000     1798      1.5031583     0.14286167         0.1875       5504.526 
 1399000     1798       1.835565     0.14406745         0.1875      5724.0879 
 1400000     1798      1.9013056     0.14084814         0.1875      5983.4918 
Loop time of 1.93009 on 80 procs for 20000 steps with 1798 atoms, finish time Thu Sep  6 15:55:51 2018


Pair  time (%) = 0.274511 (14.2227)
Neigh time (%) = 0.0212703 (1.10204)
Comm  time (%) = 0.816399 (42.2986)
Outpt time (%) = 0.00575343 (0.298092)
Other time (%) = 0.812154 (42.0786)

Nlocal:    22.475 ave 27 max 16 min
Histogram: 1 3 4 9 8 12 14 17 5 7
Nghost:    63.475 ave 106 max 29 min
Histogram: 6 5 18 7 4 24 4 0 9 3
Neighs:    87.4125 ave 130 max 42 min
Histogram: 2 7 5 12 11 15 11 5 9 3

Total # of neighbors = 6993
Ave neighs/atom = 3.88932
Neighbor list builds = 1144
Dangerous builds = 0
  variable        nt    equal   ${nt}+1
  variable        nt    equal   9+1
  if "${nt} > ${grwNs}" then "jump cycle.in loop3"
jump cycle.in loop2
  variable        dd    equal   2*(${r0}+${nt}*${grwRt})
  variable        dd    equal   2*(0.02+${nt}*${grwRt})
  variable        dd    equal   2*(0.02+10*${grwRt})
  variable        dd    equal   2*(0.02+10*0.0005)
  set            type  1  diameter  ${dd}
  set            type  1  diameter  0.05
  1798 settings made for diameter
  run		  ${writeOutEvery}
  run		  20000
Setting up run at Thu Sep  6 15:55:51 2018

Memory usage per processor = 9.54823 Mbytes
    Step    Atoms         KinEng            ker         Volume            prs 
 1400000     1798      2.0201039     0.15581911         0.1875      22922.794 
 1401000     1798       5.045974      1.0644364         0.1875      18642.459 
 1402000     1798      9.0581623     0.95681715         0.1875      17532.222 
 1403000     1795      12.708327     0.96169159         0.1875      16041.487 
 1404000     1793      14.172869     0.99105388         0.1875      14734.317 
 1405000     1784      13.712573      1.0073185         0.1875      13415.514 
 1406000     1776      12.388879     0.95037303         0.1875      12270.622 
 1407000     1765      10.466007     0.91672946         0.1875      11222.868 
 1408000     1755      8.5050314     0.84737658         0.1875      10336.003 
 1409000     1753      6.6565845     0.73791939         0.1875      9571.2841 
 1410000     1745      4.8827334     0.62606553         0.1875      8916.1727 
 1411000     1742      3.3490286     0.53657005         0.1875      8382.5219 
 1412000     1738      2.0741974     0.42059555         0.1875      7940.1993 
 1413000     1732      1.0857493     0.30363834         0.1875      7619.4464 
 1414000     1732      0.4725105     0.20030523         0.1875      7415.0303 
 1415000     1732     0.28110354     0.12498746         0.1875      7328.0801 
 1416000     1732     0.41518411    0.093857215         0.1875      7345.8616 
 1417000     1732     0.71047526    0.082358492         0.1875      7431.8354 
 1418000     1732     0.94063967      0.1015118         0.1875       7553.878 
 1419000     1732     0.94909529    0.085365513         0.1875      7729.1744 
 1420000     1732     0.83612493    0.081970211         0.1875       7917.841 
Loop time of 1.86623 on 80 procs for 20000 steps with 1732 atoms, finish time Thu Sep  6 15:55:52 2018


Pair  time (%) = 0.275334 (14.7535)
Neigh time (%) = 0.0191835 (1.02793)
Comm  time (%) = 0.80203 (42.976)
Outpt time (%) = 0.00512159 (0.274435)
Other time (%) = 0.764559 (40.9681)

Nlocal:    21.65 ave 25 max 17 min
Histogram: 1 3 8 9 0 13 19 15 7 5
Nghost:    62.7125 ave 100 max 31 min
Histogram: 7 2 21 6 2 24 6 0 7 5
Neighs:    86.025 ave 126 max 46 min
Histogram: 2 5 8 12 15 11 9 11 5 2

Total # of neighbors = 6882
Ave neighs/atom = 3.97344
Neighbor list builds = 1034
Dangerous builds = 0
  variable        nt    equal   ${nt}+1
  variable        nt    equal   10+1
  if "${nt} > ${grwNs}" then "jump cycle.in loop3"
jump cycle.in loop2
  variable        dd    equal   2*(${r0}+${nt}*${grwRt})
  variable        dd    equal   2*(0.02+${nt}*${grwRt})
  variable        dd    equal   2*(0.02+11*${grwRt})
  variable        dd    equal   2*(0.02+11*0.0005)
  set            type  1  diameter  ${dd}
  set            type  1  diameter  0.051
  1732 settings made for diameter
  run		  ${writeOutEvery}
  run		  20000
Setting up run at Thu Sep  6 15:55:52 2018

Memory usage per processor = 9.54823 Mbytes
    Step    Atoms         KinEng            ker         Volume            prs 
 1420000     1732     0.88730247    0.090501736         0.1875      25795.327 
 1421000     1732      5.8307599      1.0179547         0.1875      21287.616 
 1422000     1729        10.5441     0.92475201         0.1875      20121.198 
 1423000     1718      14.033044      0.9069489         0.1875       18418.04 
 1424000     1708      15.167414     0.99464054         0.1875      17017.903 
 1425000     1692      14.786687      1.0104196         0.1875      15596.451 
 1426000     1681      13.718399     0.98912927         0.1875      14326.312 
 1427000     1675       12.23031     0.99113456         0.1875      13164.935 
 1428000     1664      10.555171     0.95668123         0.1875      12105.552 
 1429000     1656      8.7556888     0.84961959         0.1875      11175.922 
 1430000     1650      7.0441232     0.75984439         0.1875      10377.739 
 1431000     1646      5.4554316     0.70369769         0.1875      9682.8831 
 1432000     1643      4.0676475     0.66896643         0.1875      9093.4681 
 1433000     1640      3.0257722     0.69375039         0.1875      8579.1937 
 1434000     1639      1.9760999     0.66449617         0.1875      8152.9267 
 1435000     1639      1.1835513     0.48764941         0.1875      7829.4568 
 1436000     1639     0.58854301     0.28739379         0.1875      7607.0372 
 1437000     1638     0.27334028     0.15429251         0.1875      7512.0683 
 1438000     1638     0.29451163     0.08370755         0.1875      7521.4912 
 1439000     1638     0.39888618    0.069488038         0.1875      7586.2962 
 1440000     1638     0.42477335    0.059762521         0.1875      7690.3445 
Loop time of 1.84559 on 80 procs for 20000 steps with 1638 atoms, finish time Thu Sep  6 15:55:54 2018


Pair  time (%) = 0.265961 (14.4106)
Neigh time (%) = 0.0201611 (1.09239)
Comm  time (%) = 0.808627 (43.8139)
Outpt time (%) = 0.00516723 (0.279977)
Other time (%) = 0.745678 (40.4031)

Nlocal:    20.475 ave 26 max 16 min
Histogram: 1 4 3 11 26 19 5 7 1 3
Nghost:    60.725 ave 96 max 31 min
Histogram: 8 1 24 3 2 21 9 0 3 9
Neighs:    80.5875 ave 121 max 45 min
Histogram: 4 3 7 17 15 13 12 5 3 1

Total # of neighbors = 6447
Ave neighs/atom = 3.9359
Neighbor list builds = 1161
Dangerous builds = 0
  variable        nt    equal   ${nt}+1
  variable        nt    equal   11+1
  if "${nt} > ${grwNs}" then "jump cycle.in loop3"
jump cycle.in loop2
  variable        dd    equal   2*(${r0}+${nt}*${grwRt})
  variable        dd    equal   2*(0.02+${nt}*${grwRt})
  variable        dd    equal   2*(0.02+12*${grwRt})
  variable        dd    equal   2*(0.02+12*0.0005)
  set            type  1  diameter  ${dd}
  set            type  1  diameter  0.052
  1638 settings made for diameter
  run		  ${writeOutEvery}
  run		  20000
Setting up run at Thu Sep  6 15:55:54 2018

Memory usage per processor = 9.54823 Mbytes
    Step    Atoms         KinEng            ker         Volume            prs 
 1440000     1638     0.45025316    0.065855909         0.1875      24949.887 
 1441000     1637      5.8631365      1.0487538         0.1875      20421.752 
 1442000     1622      8.9923368     0.93954933         0.1875      19272.645 
 1443000     1608      11.730279     0.85163858         0.1875      17770.178 
 1444000     1600      12.939644     0.96346794         0.1875      16487.682 
 1445000     1588       12.96124      1.0226926         0.1875      15163.242 
 1446000     1578      12.373325      1.0666484         0.1875      13935.515 
 1447000     1571      11.537434      1.1263354         0.1875      12743.699 
 1448000     1565      10.492023      1.1223345         0.1875      11667.276 
 1449000     1556      9.2522526      1.0561618         0.1875      10664.726 
 1450000     1549      7.8208029     0.98199649         0.1875      9747.5383 
 1451000     1546      6.3530923     0.91004245         0.1875      8931.3894 
 1452000     1541      4.8106228     0.78659452         0.1875      8236.4632 
 1453000     1536      3.3676734     0.66046991         0.1875       7647.747 
 1454000     1534      2.0880894     0.53731661         0.1875       7210.878 
 1455000     1534       1.111491     0.39528907         0.1875      6894.9363 
 1456000     1534     0.49892087     0.25472127         0.1875      6688.8489 
 1457000     1534     0.27295689     0.16024528         0.1875      6575.0541 
 1458000     1534     0.32469266     0.10306109         0.1875      6560.2479 
 1459000     1534     0.51176885     0.07471859         0.1875      6624.6534 
 1460000     1534     0.67521382    0.064136433         0.1875       6755.956 
Loop time of 1.78348 on 80 procs for 20000 steps with 1534 atoms, finish time Thu Sep  6 15:55:56 2018


Pair  time (%) = 0.248135 (13.913)
Neigh time (%) = 0.0164749 (0.923753)
Comm  time (%) = 0.781936 (43.8434)
Outpt time (%) = 0.00479423 (0.268814)
Other time (%) = 0.732135 (41.051)

Nlocal:    19.175 ave 24 max 14 min
Histogram: 1 0 2 7 16 24 12 13 4 1
Nghost:    57.7375 ave 91 max 29 min
Histogram: 8 1 23 3 4 26 2 1 2 10
Neighs:    73.425 ave 101 max 43 min
Histogram: 1 4 8 13 12 12 15 5 6 4

Total # of neighbors = 5874
Ave neighs/atom = 3.8292
Neighbor list builds = 1001
Dangerous builds = 0
  variable        nt    equal   ${nt}+1
  variable        nt    equal   12+1
  if "${nt} > ${grwNs}" then "jump cycle.in loop3"
jump cycle.in loop2
  variable        dd    equal   2*(${r0}+${nt}*${grwRt})
  variable        dd    equal   2*(0.02+${nt}*${grwRt})
  variable        dd    equal   2*(0.02+13*${grwRt})
  variable        dd    equal   2*(0.02+13*0.0005)
  set            type  1  diameter  ${dd}
  set            type  1  diameter  0.053
  1534 settings made for diameter
  run		  ${writeOutEvery}
  run		  20000
Setting up run at Thu Sep  6 15:55:56 2018

Memory usage per processor = 9.54823 Mbytes
    Step    Atoms         KinEng            ker         Volume            prs 
 1460000     1534     0.71492239    0.070545194         0.1875      22613.692 
 1461000     1534      4.5446248      1.0002999         0.1875      18552.675 
 1462000     1526      6.7160383     0.82129985         0.1875       17677.27 
 1463000     1514      9.1323051     0.75894756         0.1875      16407.797 
 1464000     1507      10.170904      0.7901292         0.1875      15289.262 
 1465000     1495      10.051966      0.7775277         0.1875      14179.051 
 1466000     1484      9.3646384     0.79378359         0.1875      13145.596 
 1467000     1480      8.4166291     0.83002426         0.1875      12236.795 
 1468000     1471      7.2398889     0.78910645         0.1875      11393.556 
 1469000     1467      6.0582457     0.73593725         0.1875      10649.026 
 1470000     1462      4.8960925     0.66043599         0.1875       9985.608 
 1471000     1460      3.7895978     0.60342462         0.1875      9386.6608 
 1472000     1460      2.8426632     0.59558869         0.1875      8850.8264 
 1473000     1460      1.9712031      0.4826249         0.1875      8421.9068 
 1474000     1459      1.2826882     0.42770133         0.1875      8069.8095 
 1475000     1459     0.80365941     0.39944644         0.1875      7823.2372 
 1476000     1459     0.53563174     0.29566244         0.1875      7637.8588 
 1477000     1459     0.36333858     0.17608176         0.1875      7549.8424 
 1478000     1459     0.35189404     0.10476042         0.1875      7558.6888 
 1479000     1459     0.35756224    0.063641393         0.1875      7618.0672 
 1480000     1459     0.31945699    0.052305827         0.1875      7704.8063 
Loop time of 1.76071 on 80 procs for 20000 steps with 1459 atoms, finish time Thu Sep  6 15:55:57 2018


Pair  time (%) = 0.236287 (13.42)
Neigh time (%) = 0.0154444 (0.877171)
Comm  time (%) = 0.773895 (43.9536)
Outpt time (%) = 0.00617898 (0.350937)
Other time (%) = 0.728905 (41.3983)

Nlocal:    18.2375 ave 23 max 14 min
Histogram: 1 2 6 14 26 14 12 4 0 1
Nghost:    58.3875 ave 96 max 29 min
Histogram: 8 2 21 5 11 17 3 1 10 2
Neighs:    72.2 ave 107 max 42 min
Histogram: 2 5 11 10 17 15 11 5 3 1

Total # of neighbors = 5776
Ave neighs/atom = 3.95888
Neighbor list builds = 990
Dangerous builds = 0
  variable        nt    equal   ${nt}+1
  variable        nt    equal   13+1
  if "${nt} > ${grwNs}" then "jump cycle.in loop3"
jump cycle.in loop2
  variable        dd    equal   2*(${r0}+${nt}*${grwRt})
  variable        dd    equal   2*(0.02+${nt}*${grwRt})
  variable        dd    equal   2*(0.02+14*${grwRt})
  variable        dd    equal   2*(0.02+14*0.0005)
  set            type  1  diameter  ${dd}
  set            type  1  diameter  0.054
  1459 settings made for diameter
  run		  ${writeOutEvery}
  run		  20000
Setting up run at Thu Sep  6 15:55:57 2018

Memory usage per processor = 9.54823 Mbytes
    Step    Atoms         KinEng            ker         Volume            prs 
 1480000     1459     0.33788278    0.057430093         0.1875      24058.809 
 1481000     1457      5.5174043       0.937254         0.1875      19847.559 
 1482000     1444      8.6025387     0.84953059         0.1875      18786.163 
 1483000     1436      11.377497      0.8772533         0.1875      17308.006 
 1484000     1425      12.409418     0.97544322         0.1875      16079.647 
 1485000     1409      12.307824      1.0282334         0.1875      14772.433 
 1486000     1402      11.668391      1.0749679         0.1875      13638.932 
 1487000     1393      10.664478      1.0053443         0.1875      12570.807 
 1488000     1388       9.544477     0.95562313         0.1875      11592.559 
 1489000     1382      8.3005392     0.89902189         0.1875      10707.081 
 1490000     1380      7.0968096     0.88363631         0.1875      9878.2301 
 1491000     1377      5.9527108     0.93072843         0.1875      9126.5383 
 1492000     1374      4.7863924     0.95143264         0.1875      8439.5979 
 1493000     1371      3.5273077     0.71204284         0.1875      7847.2179 
 1494000     1370      2.2535976     0.53290578         0.1875      7364.3224 
 1495000     1369      1.2580912     0.38832667         0.1875      6987.9593 
 1496000     1369     0.67641836     0.26404109         0.1875      6739.4406 
 1497000     1369     0.32638716     0.18933678         0.1875      6608.8041 
 1498000     1369     0.29364994     0.12642418         0.1875      6557.5411 
 1499000     1369     0.37950795    0.092617317         0.1875      6583.3577 
 1500000     1369     0.49588451    0.078993186         0.1875      6673.6843 
Loop time of 1.77673 on 80 procs for 20000 steps with 1369 atoms, finish time Thu Sep  6 15:55:59 2018


Pair  time (%) = 0.223984 (12.6065)
Neigh time (%) = 0.0155729 (0.876491)
Comm  time (%) = 0.787513 (44.3237)
Outpt time (%) = 0.0142743 (0.803399)
Other time (%) = 0.735388 (41.3899)

Nlocal:    17.1125 ave 21 max 13 min
Histogram: 1 2 10 20 0 13 14 16 3 1
Nghost:    58.9125 ave 97 max 30 min
Histogram: 8 8 19 1 9 20 3 0 5 7
Neighs:    66.0875 ave 100 max 38 min
Histogram: 6 5 6 15 12 18 8 6 1 3

Total # of neighbors = 5287
Ave neighs/atom = 3.86194
Neighbor list builds = 1063
Dangerous builds = 0
  variable        nt    equal   ${nt}+1
  variable        nt    equal   14+1
  if "${nt} > ${grwNs}" then "jump cycle.in loop3"
jump cycle.in loop2
  variable        dd    equal   2*(${r0}+${nt}*${grwRt})
  variable        dd    equal   2*(0.02+${nt}*${grwRt})
  variable        dd    equal   2*(0.02+15*${grwRt})
  variable        dd    equal   2*(0.02+15*0.0005)
  set            type  1  diameter  ${dd}
  set            type  1  diameter  0.055
  1369 settings made for diameter
  run		  ${writeOutEvery}
  run		  20000
Setting up run at Thu Sep  6 15:55:59 2018

Memory usage per processor = 9.54823 Mbytes
    Step    Atoms         KinEng            ker         Volume            prs 
 1500000     1369     0.52394696    0.086583328         0.1875      21727.985 
 1501000     1367      4.3211296      0.9677621         0.1875       17779.24 
 1502000     1359      6.1879938     0.79435728         0.1875      16873.971 
 1503000     1345      7.7919291     0.75200042         0.1875      15697.041 
 1504000     1335      8.6920773     0.73166954         0.1875      14665.395 
 1505000     1331      8.9075192     0.72538857         0.1875      13632.609 
 1506000     1322      8.2782147     0.72228842         0.1875       12674.36 
 1507000     1317      7.4975279     0.71137397         0.1875      11796.829 
 1508000     1311      6.5759749     0.71278165         0.1875      10950.279 
 1509000     1307      5.6467833      0.7093336         0.1875       10155.28 
 1510000     1305      4.7414437     0.70078454         0.1875       9415.057 
 1511000     1305      3.7980043     0.62775302         0.1875      8762.2079 
 1512000     1303      2.7644113     0.50857765         0.1875      8211.5074 
 1513000     1301      1.7526272     0.38155475         0.1875       7783.737 
 1514000     1300     0.90501918     0.25507475         0.1875      7471.6521 
 1515000     1300     0.35850418     0.15343361         0.1875      7297.2461 
 1516000     1300     0.14945939    0.091306396         0.1875      7211.7721 
 1517000     1300     0.19662325     0.06317863         0.1875      7218.7532 
 1518000     1300     0.32911203    0.055736273         0.1875      7282.9285 
 1519000     1300     0.44196133    0.056316218         0.1875      7393.7023 
 1520000     1300     0.48361188    0.060883063         0.1875      7521.7256 
Loop time of 1.72096 on 80 procs for 20000 steps with 1300 atoms, finish time Thu Sep  6 15:56:01 2018


Pair  time (%) = 0.212977 (12.3754)
Neigh time (%) = 0.0124393 (0.72281)
Comm  time (%) = 0.767387 (44.5905)
Outpt time (%) = 0.00472408 (0.274502)
Other time (%) = 0.723437 (42.0367)

Nlocal:    16.25 ave 20 max 13 min
Histogram: 5 8 16 0 16 15 0 12 4 4
Nghost:    59.35 ave 102 max 28 min
Histogram: 8 9 18 1 16 13 3 0 5 7
Neighs:    64.175 ave 94 max 38 min
Histogram: 4 6 7 17 14 8 11 6 3 4

Total # of neighbors = 5134
Ave neighs/atom = 3.94923
Neighbor list builds = 891
Dangerous builds = 0
  variable        nt    equal   ${nt}+1
  variable        nt    equal   15+1
  if "${nt} > ${grwNs}" then "jump cycle.in loop3"
jump cycle.in loop2
  variable        dd    equal   2*(${r0}+${nt}*${grwRt})
  variable        dd    equal   2*(0.02+${nt}*${grwRt})
  variable        dd    equal   2*(0.02+16*${grwRt})
  variable        dd    equal   2*(0.02+16*0.0005)
  set            type  1  diameter  ${dd}
  set            type  1  diameter  0.056
  1300 settings made for diameter
  run		  ${writeOutEvery}
  run		  20000
Setting up run at Thu Sep  6 15:56:01 2018

Memory usage per processor = 9.54823 Mbytes
    Step    Atoms         KinEng            ker         Volume            prs 
 1520000     1300     0.51047323    0.066622846         0.1875      22873.649 
 1521000     1298       4.722731     0.95409563         0.1875      18887.785 
 1522000     1290       7.544172     0.79774161         0.1875      17915.465 
 1523000     1286      9.8790474     0.79849011         0.1875      16561.064 
 1524000     1273      10.571245      0.8408787         0.1875          15423 
 1525000     1262      10.510456     0.89688546         0.1875      14270.217 
 1526000     1257      10.161531     0.98184477         0.1875      13141.743 
 1527000     1250      9.5235068     0.98225038         0.1875       12092.87 
 1528000     1242      8.6360009     0.99228852         0.1875      11117.412 
 1529000     1241       7.638382     0.91696473         0.1875      10231.035 
 1530000     1238      6.5967947     0.85629134         0.1875      9414.7804 
 1531000     1233      5.4301538     0.79803889         0.1875      8685.4762 
 1532000     1229      4.1880277     0.74358427         0.1875      8049.8349 
 1533000     1226      2.9146065     0.65398028         0.1875      7512.1639 
 1534000     1226      1.8798276     0.59478121         0.1875      7039.6579 
 1535000     1226      1.3228108     0.47996592         0.1875      6626.4432 
 1536000     1226     0.61256363     0.37307185         0.1875      6317.0903 
 1537000     1225     0.34681891     0.21983361         0.1875      6168.3235 
 1538000     1225     0.32713606     0.14387897         0.1875      6120.0924 
 1539000     1225     0.41939537     0.10313277         0.1875      6161.1436 
 1540000     1225     0.55368933    0.085532447         0.1875      6267.0701 
Loop time of 1.77614 on 80 procs for 20000 steps with 1225 atoms, finish time Thu Sep  6 15:56:02 2018


Pair  time (%) = 0.203331 (11.4479)
Neigh time (%) = 0.0145375 (0.818489)
Comm  time (%) = 0.801312 (45.1153)
Outpt time (%) = 0.00473233 (0.266438)
Other time (%) = 0.752232 (42.352)

Nlocal:    15.3125 ave 20 max 11 min
Histogram: 1 5 6 16 11 21 13 4 2 1
Nghost:    58.2 ave 100 max 24 min
Histogram: 7 7 17 5 6 21 5 0 4 8
Neighs:    59.6875 ave 95 max 32 min
Histogram: 2 5 13 18 13 8 14 4 2 1

Total # of neighbors = 4775
Ave neighs/atom = 3.89796
Neighbor list builds = 1098
Dangerous builds = 0
  variable        nt    equal   ${nt}+1
  variable        nt    equal   16+1
  if "${nt} > ${grwNs}" then "jump cycle.in loop3"
jump cycle.in loop2
  variable        dd    equal   2*(${r0}+${nt}*${grwRt})
  variable        dd    equal   2*(0.02+${nt}*${grwRt})
  variable        dd    equal   2*(0.02+17*${grwRt})
  variable        dd    equal   2*(0.02+17*0.0005)
  set            type  1  diameter  ${dd}
  set            type  1  diameter  0.057
  1225 settings made for diameter
  run		  ${writeOutEvery}
  run		  20000
Setting up run at Thu Sep  6 15:56:02 2018

Memory usage per processor = 9.54823 Mbytes
    Step    Atoms         KinEng            ker         Volume            prs 
 1540000     1225     0.58388409    0.093446931         0.1875      20489.162 
 1541000     1224      4.0829247     0.88360223         0.1875      16857.993 
 1542000     1218      6.0665529      0.7652073         0.1875       15929.69 
 1543000     1209      8.0895716     0.75829281         0.1875      14768.421 
 1544000     1202      9.0269506     0.79521893         0.1875      13741.767 
 1545000     1198      9.0484263     0.79619294         0.1875       12689.91 
 1546000     1190      8.3254182     0.82816184         0.1875      11721.154 
 1547000     1183      7.3497948     0.83150673         0.1875      10860.257 
 1548000     1179      6.2325742     0.77596752         0.1875      10095.349 
 1549000     1175      5.0224768     0.69488463         0.1875      9394.9683 
 1550000     1175      3.8125896     0.58117917         0.1875      8804.8739 
 1551000     1173      2.6499014     0.46727379         0.1875      8298.6013 
 1552000     1172      1.6427957     0.37274929         0.1875       7889.838 
 1553000     1172     0.83785733     0.26415889         0.1875      7602.8789 
 1554000     1171     0.32586545     0.17292089         0.1875      7439.5163 
 1555000     1171     0.16074838     0.10747013         0.1875      7368.3699 
 1556000     1171     0.27350668    0.081508545         0.1875       7388.068 
 1557000     1171     0.42931649    0.067651995         0.1875      7470.0205 
 1558000     1171     0.52356872    0.067489333         0.1875      7593.9457 
 1559000     1171     0.51075453    0.072747453         0.1875      7743.1478 
 1560000     1171     0.41070342    0.072256937         0.1875      7883.1432 
Loop time of 1.7404 on 80 procs for 20000 steps with 1171 atoms, finish time Thu Sep  6 15:56:04 2018


Pair  time (%) = 0.193884 (11.1402)
Neigh time (%) = 0.0111451 (0.640376)
Comm  time (%) = 0.778977 (44.7585)
Outpt time (%) = 0.00529832 (0.304431)
Other time (%) = 0.751095 (43.1565)

Nlocal:    14.6375 ave 19 max 11 min
Histogram: 2 8 11 15 0 23 9 6 5 1
Nghost:    56.975 ave 98 max 26 min
Histogram: 8 12 15 1 9 19 3 1 5 7
Neighs:    58.85 ave 88 max 37 min
Histogram: 6 10 9 16 9 10 9 5 2 4

Total # of neighbors = 4708
Ave neighs/atom = 4.0205
Neighbor list builds = 873
Dangerous builds = 0
  variable        nt    equal   ${nt}+1
  variable        nt    equal   17+1
  if "${nt} > ${grwNs}" then "jump cycle.in loop3"
jump cycle.in loop2
  variable        dd    equal   2*(${r0}+${nt}*${grwRt})
  variable        dd    equal   2*(0.02+${nt}*${grwRt})
  variable        dd    equal   2*(0.02+18*${grwRt})
  variable        dd    equal   2*(0.02+18*0.0005)
  set            type  1  diameter  ${dd}
  set            type  1  diameter  0.058
  1171 settings made for diameter
  run		  ${writeOutEvery}
  run		  20000
Setting up run at Thu Sep  6 15:56:04 2018

Memory usage per processor = 9.54823 Mbytes
    Step    Atoms         KinEng            ker         Volume            prs 
 1560000     1171     0.43270083    0.078821598         0.1875      22770.762 
 1561000     1171      4.9580858     0.85739115         0.1875      19044.389 
 1562000     1165      7.6345026     0.77369578         0.1875      18050.345 
 1563000     1153       9.490477      0.7979994         0.1875      16751.512 
 1564000     1143      10.164921     0.87520935         0.1875      15721.594 
 1565000     1138      10.180787     0.88923626         0.1875      14606.533 
 1566000     1135      9.5969717     0.92843679         0.1875      13594.805 
 1567000     1128      8.5646179     0.90811056         0.1875      12691.939 
 1568000     1123      7.4246438     0.81615878         0.1875      11833.336 
 1569000     1117       6.147558     0.83517281         0.1875       11051.89 
 1570000     1112      4.9583513     0.79847393         0.1875      10355.164 
 1571000     1111      3.9334075     0.73182277         0.1875      9725.0052 
 1572000     1109      2.8864017     0.60325804         0.1875      9192.9585 
 1573000     1105      1.9290033     0.46583123         0.1875      8746.3561 
 1574000     1104      1.1262325     0.34839346         0.1875      8421.0111 
 1575000     1104     0.59669198     0.24502434         0.1875       8190.897 
 1576000     1104     0.38907294     0.19368519         0.1875      8073.7721 
 1577000     1104     0.22472389      0.1229873         0.1875      8040.4184 
 1578000     1104     0.24178144    0.077982646         0.1875      8057.1101 
 1579000     1104     0.30367903    0.055742859         0.1875      8123.5687 
 1580000     1104     0.31293453    0.050584303         0.1875      8227.2154 
Loop time of 1.70157 on 80 procs for 20000 steps with 1104 atoms, finish time Thu Sep  6 15:56:06 2018


Pair  time (%) = 0.187671 (11.0292)
Neigh time (%) = 0.0111553 (0.655587)
Comm  time (%) = 0.771871 (45.3622)
Outpt time (%) = 0.00444642 (0.261313)
Other time (%) = 0.72643 (42.6917)

Nlocal:    13.8 ave 18 max 11 min
Histogram: 5 14 18 0 17 14 0 7 3 2
Nghost:    54.95 ave 96 max 26 min
Histogram: 8 10 17 1 14 14 4 0 4 8
Neighs:    55.9375 ave 84 max 35 min
Histogram: 6 7 11 16 11 9 9 5 5 1

Total # of neighbors = 4475
Ave neighs/atom = 4.05344
Neighbor list builds = 922
Dangerous builds = 0
  variable        nt    equal   ${nt}+1
  variable        nt    equal   18+1
  if "${nt} > ${grwNs}" then "jump cycle.in loop3"
jump cycle.in loop2
  variable        dd    equal   2*(${r0}+${nt}*${grwRt})
  variable        dd    equal   2*(0.02+${nt}*${grwRt})
  variable        dd    equal   2*(0.02+19*${grwRt})
  variable        dd    equal   2*(0.02+19*0.0005)
  set            type  1  diameter  ${dd}
  set            type  1  diameter  0.059
  1104 settings made for diameter
  run		  ${writeOutEvery}
  run		  20000
Setting up run at Thu Sep  6 15:56:06 2018

Memory usage per processor = 9.54823 Mbytes
    Step    Atoms         KinEng            ker         Volume            prs 
 1580000     1104     0.32940148    0.055098004         0.1875      22850.999 
 1581000     1104      4.2053303     0.87757425         0.1875      19181.741 
 1582000     1097      6.2260105     0.75379024         0.1875      18394.207 
 1583000     1090      8.2046661     0.75021281         0.1875       17140.53 
 1584000     1087      9.1959035     0.85061123         0.1875      16192.718 
 1585000     1081      9.2972008     0.89663648         0.1875      15103.057 
 1586000     1070      8.8156469     0.91629304         0.1875      14108.837 
 1587000     1067      8.3253486     0.91536716         0.1875      13172.802 
 1588000     1063      7.5541691     0.95206468         0.1875      12284.894 
 1589000     1058      6.7536282     0.94527586         0.1875      11448.911 
 1590000     1057      6.0707755     0.93346824         0.1875      10644.688 
 1591000     1056      5.3494869     0.98419433         0.1875      9913.6898 
 1592000     1054      4.4942928      1.0111751         0.1875      9293.4765 
 1593000     1051      3.4743613     0.87411711         0.1875      8760.4968 
 1594000     1050      2.2992966     0.63600268         0.1875        8311.45 
 1595000     1049      1.2973128     0.40208492         0.1875      7983.3847 
 1596000     1048     0.75906027     0.25578675         0.1875      7722.6249 
 1597000     1047     0.31100197      0.1781149         0.1875      7574.1208 
 1598000     1047     0.23154856     0.12929423         0.1875      7498.2763 
 1599000     1047     0.28564833     0.11077066         0.1875      7508.2878 
 1600000     1047     0.37872247    0.099264492         0.1875      7571.0388 
Loop time of 1.73414 on 80 procs for 20000 steps with 1047 atoms, finish time Thu Sep  6 15:56:07 2018


Pair  time (%) = 0.176772 (10.1936)
Neigh time (%) = 0.0113428 (0.654089)
Comm  time (%) = 0.778299 (44.881)
Outpt time (%) = 0.00458695 (0.264509)
Other time (%) = 0.763138 (44.0067)

Nlocal:    13.0875 ave 16 max 10 min
Histogram: 3 7 0 20 0 14 24 0 10 2
Nghost:    52.975 ave 89 max 23 min
Histogram: 8 4 17 7 5 21 6 0 4 8
Neighs:    51.1125 ave 73 max 32 min
Histogram: 7 7 14 7 9 6 13 8 3 6

Total # of neighbors = 4089
Ave neighs/atom = 3.90544
Neighbor list builds = 992
Dangerous builds = 0
  variable        nt    equal   ${nt}+1
  variable        nt    equal   19+1
  if "${nt} > ${grwNs}" then "jump cycle.in loop3"
jump cycle.in loop2
  variable        dd    equal   2*(${r0}+${nt}*${grwRt})
  variable        dd    equal   2*(0.02+${nt}*${grwRt})
  variable        dd    equal   2*(0.02+20*${grwRt})
  variable        dd    equal   2*(0.02+20*0.0005)
  set            type  1  diameter  ${dd}
  set            type  1  diameter  0.06
  1047 settings made for diameter
  run		  ${writeOutEvery}
  run		  20000
Setting up run at Thu Sep  6 15:56:07 2018

Memory usage per processor = 9.54823 Mbytes
    Step    Atoms         KinEng            ker         Volume            prs 
 1600000     1047     0.39830778     0.10796677         0.1875      21163.987 
 1601000     1044      3.2593464     0.92925434         0.1875        17805.2 
 1602000     1038      4.6844989     0.73956763         0.1875      17101.389 
 1603000     1037      6.4897501     0.72251745         0.1875      16063.165 
 1604000     1031      7.1849886     0.80549273         0.1875      15226.133 
 1605000     1020      7.1080534     0.76804512         0.1875      14351.611 
 1606000     1013      6.7285148     0.76398927         0.1875      13500.942 
 1607000     1011      6.2230512     0.76912052         0.1875      12714.997 
 1608000     1007      5.4856613     0.76083123         0.1875      11984.735 
 1609000     1005      4.7446897     0.72412473         0.1875      11330.028 
 1610000     1002      3.9023289     0.65861881         0.1875      10756.339 
 1611000     1000      3.0745423     0.57475313         0.1875      10204.664 
 1612000      999      2.3507225     0.52702031         0.1875      9720.2908 
 1613000      998      1.6976661     0.46991495         0.1875      9307.0409 
 1614000      998      1.1104108     0.36882909         0.1875         8977.4 
 1615000      996     0.62869681     0.26696467         0.1875      8735.2753 
 1616000      996     0.31017346     0.18144766         0.1875      8598.8685 
 1617000      996     0.20364436     0.11212092         0.1875      8537.1226 
 1618000      996     0.25396712    0.080008322         0.1875      8553.7414 
 1619000      996     0.33357917    0.070080242         0.1875      8601.0127 
 1620000      996     0.36844099    0.065862199         0.1875      8690.4805 
Loop time of 1.67288 on 80 procs for 20000 steps with 996 atoms, finish time Thu Sep  6 15:56:09 2018


Pair  time (%) = 0.167562 (10.0164)
Neigh time (%) = 0.00911115 (0.544637)
Comm  time (%) = 0.765929 (45.7849)
Outpt time (%) = 0.00433882 (0.259362)
Other time (%) = 0.725943 (43.3947)

Nlocal:    12.45 ave 16 max 9 min
Histogram: 2 6 11 0 19 25 0 12 4 1
Nghost:    51.575 ave 85 max 23 min
Histogram: 7 4 15 10 3 23 6 0 2 10
Neighs:    49.25 ave 79 max 23 min
Histogram: 2 5 8 17 14 13 10 6 4 1

Total # of neighbors = 3940
Ave neighs/atom = 3.95582
Neighbor list builds = 827
Dangerous builds = 0
  variable        nt    equal   ${nt}+1
  variable        nt    equal   20+1
  if "${nt} > ${grwNs}" then "jump cycle.in loop3"
jump cycle.in loop3
  variable        dd    equal   2*(0.03-(${nt}-${grwNs})*${grwRt})
  variable        dd    equal   2*(0.03-(21-${grwNs})*${grwRt})
  variable        dd    equal   2*(0.03-(21-20)*${grwRt})
  variable        dd    equal   2*(0.03-(21-20)*0.0005)
  set             type  1  diameter  ${dd}
  set             type  1  diameter  0.059
  996 settings made for diameter
  run		  ${writeOutEvery}
  run		  20000
Setting up run at Thu Sep  6 15:56:09 2018

Memory usage per processor = 9.54823 Mbytes
    Step    Atoms         KinEng            ker         Volume            prs 
 1620000      996     0.35032427    0.060553609         0.1875      2542.6206 
 1621000      996      2.5929835     0.45751236         0.1875      3022.3762 
 1622000      996      4.2042515     0.43730243         0.1875      3037.4216 
 1623000      996      6.3671768      0.3546814         0.1875      3136.0222 
 1624000      996       8.566506     0.30565857         0.1875      3389.5125 
 1625000      996      10.315129     0.34777299         0.1875      3841.2289 
 1626000      996      10.992449     0.40815961         0.1875      4383.8692 
 1627000      996      10.144343     0.52848311         0.1875      4963.3997 
 1628000      996      8.2058616     0.53041903         0.1875      5544.9039 
 1629000      996        5.66283     0.48583342         0.1875      6008.4924 
 1630000      996      3.0641493     0.40355563         0.1875      6366.1428 
 1631000      996      1.1579644     0.29942866         0.1875      6559.5312 
 1632000      996     0.36805445     0.18333028         0.1875       6598.928 
 1633000      996     0.51183561     0.12033149         0.1875      6472.5976 
 1634000      996     0.88804238     0.10766843         0.1875      6223.5091 
 1635000      996     0.98518532     0.10446754         0.1875      5905.6087 
 1636000      996     0.81661349     0.10141432         0.1875      5634.0072 
 1637000      996     0.54894593    0.093190513         0.1875      5399.6339 
 1638000      996     0.29972705    0.080846774         0.1875      5231.6035 
 1639000      996     0.12543718    0.066195032         0.1875      5134.4971 
 1640000      996    0.061720283    0.049115017         0.1875      5097.1159 
Loop time of 1.62199 on 80 procs for 20000 steps with 996 atoms, finish time Thu Sep  6 15:56:10 2018


Pair  time (%) = 0.149499 (9.21699)
Neigh time (%) = 0.00951917 (0.586882)
Comm  time (%) = 0.749204 (46.1904)
Outpt time (%) = 0.00433638 (0.267349)
Other time (%) = 0.709433 (43.7384)

Nlocal:    12.45 ave 18 max 7 min
Histogram: 3 5 3 10 16 23 9 7 3 1
Nghost:    51.6375 ave 91 max 21 min
Histogram: 7 5 19 5 7 23 2 0 5 7
Neighs:    49.1375 ave 75 max 18 min
Histogram: 2 7 6 5 15 11 9 10 11 4

Total # of neighbors = 3931
Ave neighs/atom = 3.94679
Neighbor list builds = 897
Dangerous builds = 0
  variable        nt    equal   ${nt}+1
  variable        nt    equal   21+1
  if "${nt} > 40" then "jump cycle.in loop4"
jump cycle.in loop3
  variable        dd    equal   2*(0.03-(${nt}-${grwNs})*${grwRt})
  variable        dd    equal   2*(0.03-(22-${grwNs})*${grwRt})
  variable        dd    equal   2*(0.03-(22-20)*${grwRt})
  variable        dd    equal   2*(0.03-(22-20)*0.0005)
  set             type  1  diameter  ${dd}
  set             type  1  diameter  0.058
  996 settings made for diameter
  run		  ${writeOutEvery}
  run		  20000
Setting up run at Thu Sep  6 15:56:10 2018

Memory usage per processor = 9.54823 Mbytes
    Step    Atoms         KinEng            ker         Volume            prs 
 1640000      996    0.058634854    0.045091451         0.1875      782.57929 
 1641000      996      1.2773821     0.17487037         0.1875      1036.8706 
 1642000      996      3.0616141     0.17028668         0.1875       1116.958 
 1643000      996       5.822496      0.1773354         0.1875      1266.4229 
 1644000      996      9.1200845     0.21143218         0.1875      1539.8785 
 1645000      996      12.435498     0.27228139         0.1875      1942.9101 
 1646000      996      14.919863     0.32847549         0.1875      2510.3964 
 1647000      996      15.712989     0.39412859         0.1875      3255.4775 
 1648000      996      14.306017     0.48588715         0.1875      4091.6232 
 1649000      996      10.728083     0.58578628         0.1875      4835.6929 
 1650000      996      6.3744892     0.61071227         0.1875       5452.942 
 1651000      996      2.7157507     0.49265725         0.1875      5810.9993 
 1652000      996     0.80185626     0.29253544         0.1875      5937.1042 
 1653000      996     0.57165734     0.17982049         0.1875      5862.5776 
 1654000      996      1.1817768     0.14375602         0.1875      5548.4351 
 1655000      996      1.6464505     0.15510952         0.1875      5122.1523 
 1656000      996      1.6517331     0.15328626         0.1875      4694.4468 
 1657000      996      1.3493174     0.15169415         0.1875      4312.6499 
 1658000      996     0.91162752     0.14127536         0.1875      4009.1565 
 1659000      996     0.49325252     0.10976436         0.1875      3800.4946 
 1660000      996     0.19741356    0.085643141         0.1875      3680.0904 
Loop time of 1.61649 on 80 procs for 20000 steps with 996 atoms, finish time Thu Sep  6 15:56:12 2018


Pair  time (%) = 0.141915 (8.77924)
Neigh time (%) = 0.00967001 (0.598211)
Comm  time (%) = 0.745391 (46.1117)
Outpt time (%) = 0.00435592 (0.269468)
Other time (%) = 0.715157 (44.2414)

Nlocal:    12.45 ave 16 max 5 min
Histogram: 5 5 4 2 0 5 4 16 21 18
Nghost:    51.3375 ave 92 max 20 min
Histogram: 7 9 16 8 5 21 2 0 4 8
Neighs:    48.6 ave 84 max 11 min
Histogram: 6 8 2 4 12 13 19 11 4 1

Total # of neighbors = 3888
Ave neighs/atom = 3.90361
Neighbor list builds = 901
Dangerous builds = 0
  variable        nt    equal   ${nt}+1
  variable        nt    equal   22+1
  if "${nt} > 40" then "jump cycle.in loop4"
jump cycle.in loop3
  variable        dd    equal   2*(0.03-(${nt}-${grwNs})*${grwRt})
  variable        dd    equal   2*(0.03-(23-${grwNs})*${grwRt})
  variable        dd    equal   2*(0.03-(23-20)*${grwRt})
  variable        dd    equal   2*(0.03-(23-20)*0.0005)
  set             type  1  diameter  ${dd}
  set             type  1  diameter  0.057
  996 settings made for diameter
  run		  ${writeOutEvery}
  run		  20000
Setting up run at Thu Sep  6 15:56:12 2018

Memory usage per processor = 9.54823 Mbytes
    Step    Atoms         KinEng            ker         Volume            prs 
 1660000      996     0.18737756    0.078510347         0.1875      299.49077 
 1661000      996     0.83209124     0.13616469         0.1875      431.72846 
 1662000      996      2.4588254     0.13845028         0.1875      487.71693 
 1663000      996      5.2370334     0.14885381         0.1875      628.69717 
 1664000      996      8.6751279     0.18131344         0.1875      906.18445 
 1665000      996      12.120347     0.23681837         0.1875      1316.5833 
 1666000      996      14.803958     0.32894558         0.1875      1869.6267 
 1667000      996      15.996368     0.39625219         0.1875      2592.4833 
 1668000      996      14.997862     0.50417087         0.1875      3425.7864 
 1669000      996      11.790982     0.60100006         0.1875      4206.8991 
 1670000      996       7.330802     0.60839639         0.1875      4886.1817 
 1671000      996      3.3420764     0.61263089         0.1875      5266.0981 
 1672000      996      1.3377901     0.49957268         0.1875       5273.117 
 1673000      996      1.1170842      0.3422112         0.1875      5048.8801 
 1674000      996      1.6203415     0.29805835         0.1875      4637.0094 
 1675000      996      1.9439835     0.27489374         0.1875      4132.0205 
 1676000      996      1.7390205     0.25331964         0.1875      3685.1879 
 1677000      996      1.2737842     0.23259026         0.1875      3321.8116 
 1678000      996     0.74830347     0.19505075         0.1875       3051.689 
 1679000      996     0.34324795     0.15135645         0.1875      2869.1121 
 1680000      996     0.14130028     0.11308111         0.1875      2784.6489 
Loop time of 1.66661 on 80 procs for 20000 steps with 996 atoms, finish time Thu Sep  6 15:56:13 2018


Pair  time (%) = 0.134612 (8.07701)
Neigh time (%) = 0.0101151 (0.606927)
Comm  time (%) = 0.767612 (46.0584)
Outpt time (%) = 0.00520269 (0.312173)
Other time (%) = 0.749064 (44.9455)

Nlocal:    12.45 ave 18 max 2 min
Histogram: 4 11 1 0 0 0 16 18 23 7
Nghost:    51 ave 98 max 14 min
Histogram: 5 12 8 15 5 17 6 2 6 4
Neighs:    47.0125 ave 84 max 3 min
Histogram: 15 1 0 2 3 14 20 14 9 2

Total # of neighbors = 3761
Ave neighs/atom = 3.7761
Neighbor list builds = 938
Dangerous builds = 0
  variable        nt    equal   ${nt}+1
  variable        nt    equal   23+1
  if "${nt} > 40" then "jump cycle.in loop4"
jump cycle.in loop3
  variable        dd    equal   2*(0.03-(${nt}-${grwNs})*${grwRt})
  variable        dd    equal   2*(0.03-(24-${grwNs})*${grwRt})
  variable        dd    equal   2*(0.03-(24-20)*${grwRt})
  variable        dd    equal   2*(0.03-(24-20)*0.0005)
  set             type  1  diameter  ${dd}
  set             type  1  diameter  0.056
  996 settings made for diameter
  run		  ${writeOutEvery}
  run		  20000
Setting up run at Thu Sep  6 15:56:13 2018

[...]
 1884000      996      5.4229768     0.14388136         0.1875      496.08709 
 1885000      996        5.56187     0.22313004         0.1875      907.41028 
 1886000      996      3.9293253     0.31269263         0.1875      1367.9848 
 1887000      996      1.9317304     0.34298217         0.1875      1639.1845 
 1888000      996     0.92888228     0.27629674         0.1875      1605.5855 
 1889000      996     0.90228628     0.21727986         0.1875      1356.3758 
 1890000      996     0.97918532     0.17874206         0.1875      1037.6005 
 1891000      996     0.78217608      0.1490665         0.1875      766.96923 
 1892000      996     0.45378542     0.12353225         0.1875      578.82459 
 1893000      996     0.22336521    0.099830284         0.1875      492.37349 
 1894000      996     0.17711672    0.083037252         0.1875      484.54787 
 1895000      996     0.27878408    0.073619993         0.1875      546.69048 
 1896000      996     0.39299761    0.068677893         0.1875       665.4689 
 1897000      996     0.39510443    0.063337085         0.1875       807.7954 
 1898000      996      0.2511901    0.053126349         0.1875      933.26171 
 1899000      996     0.11883369    0.044295302         0.1875      983.42655 
 1900000      996     0.08047878    0.036414724         0.1875      969.24455 
Loop time of 1.51015 on 80 procs for 20000 steps with 996 atoms, finish time Thu Sep  6 15:56:29 2018


Pair  time (%) = 0.113838 (7.53819)
Neigh time (%) = 0.010194 (0.675035)
Comm  time (%) = 0.415822 (27.5352)
Outpt time (%) = 0.00448814 (0.297199)
Other time (%) = 0.965807 (63.9544)

Nlocal:    12.45 ave 31 max 0 min
Histogram: 32 7 6 3 0 0 0 0 17 15
Nghost:    32.95 ave 103 max 0 min
Histogram: 32 0 9 9 3 10 5 6 2 4
Neighs:    44.3375 ave 136 max 0 min
Histogram: 34 13 1 0 0 3 11 10 4 4

Total # of neighbors = 3547
Ave neighs/atom = 3.56124
Neighbor list builds = 936
Dangerous builds = 0
  variable        nt    equal   ${nt}+1
  variable        nt    equal   34+1
  if "${nt} > 40" then "jump cycle.in loop4"
jump cycle.in loop3
  variable        dd    equal   2*(0.03-(${nt}-${grwNs})*${grwRt})
  variable        dd    equal   2*(0.03-(35-${grwNs})*${grwRt})
  variable        dd    equal   2*(0.03-(35-20)*${grwRt})
  variable        dd    equal   2*(0.03-(35-20)*0.0005)
  set             type  1  diameter  ${dd}
  set             type  1  diameter  0.045
  996 settings made for diameter
  run		  ${writeOutEvery}
  run		  20000
Setting up run at Thu Sep  6 15:56:29 2018

Memory usage per processor = 9.54823 Mbytes
    Step    Atoms         KinEng            ker         Volume            prs 
 1900000      996    0.075343438    0.032624993         0.1875     0.48440319 
 1901000      996     0.49218356    0.034039345         0.1875      9.8113705 
 1902000      996      1.7343008    0.039233191         0.1875      53.556523 
 1903000      996      3.3505543    0.064653789         0.1875      174.84733 
 1904000      996      4.7280912     0.11748275         0.1875      399.46007 
 1905000      996      5.0142112     0.20059111         0.1875      743.20884 
 1906000      996      3.7577844     0.29510898         0.1875      1173.7499 
 1907000      996      1.8551366     0.34867596         0.1875       1418.997 
 1908000      996     0.84433785     0.27963529         0.1875      1423.5973 
 1909000      996     0.82372125     0.22114569         0.1875      1188.8838 
 1910000      996     0.87131528     0.17104789         0.1875      893.95375 
 1911000      996     0.67091641     0.14219566         0.1875      656.18404 
 1912000      996     0.36635766     0.12654032         0.1875      496.47442 
 1913000      996     0.18067244    0.099501082         0.1875      426.90891 
 1914000      996      0.1730623    0.080087005         0.1875      435.20324 
 1915000      996     0.27698879    0.070523661         0.1875      504.76175 
 1916000      996     0.35247507    0.062894327         0.1875      621.54931 
 1917000      996     0.29164311    0.054155137         0.1875      751.24438 
 1918000      996     0.16878106    0.051497334         0.1875      837.68056 
 1919000      996    0.083343006    0.041371881         0.1875       856.5199 
 1920000      996    0.067249434    0.030030387         0.1875       818.8036 
Loop time of 1.47707 on 80 procs for 20000 steps with 996 atoms, finish time Thu Sep  6 15:56:31 2018


Pair  time (%) = 0.109807 (7.4341)
Neigh time (%) = 0.00860241 (0.582397)
Comm  time (%) = 0.393535 (26.643)
Outpt time (%) = 0.0161637 (1.09431)
Other time (%) = 0.948961 (64.2462)

Nlocal:    12.45 ave 35 max 0 min
Histogram: 39 5 4 0 0 0 0 8 19 5
Nghost:    31.1125 ave 99 max 0 min
Histogram: 32 4 9 4 5 7 8 3 3 5
Neighs:    43.45 ave 140 max 0 min
Histogram: 43 5 0 0 0 3 8 13 4 4

Total # of neighbors = 3476
Ave neighs/atom = 3.48996
Neighbor list builds = 780
Dangerous builds = 0
  variable        nt    equal   ${nt}+1
  variable        nt    equal   35+1
  if "${nt} > 40" then "jump cycle.in loop4"
jump cycle.in loop3
  variable        dd    equal   2*(0.03-(${nt}-${grwNs})*${grwRt})
  variable        dd    equal   2*(0.03-(36-${grwNs})*${grwRt})
  variable        dd    equal   2*(0.03-(36-20)*${grwRt})
  variable        dd    equal   2*(0.03-(36-20)*0.0005)
  set             type  1  diameter  ${dd}
  set             type  1  diameter  0.044
  996 settings made for diameter
  run		  ${writeOutEvery}
  run		  20000
Setting up run at Thu Sep  6 15:56:31 2018

Memory usage per processor = 9.54823 Mbytes
    Step    Atoms         KinEng            ker         Volume            prs 
 1920000      996    0.062865029    0.026838716         0.1875     0.26884194 
 1921000      996     0.40724352    0.027374299         0.1875      7.0034986 
 1922000      996      1.5284186    0.033634287         0.1875      50.415583 
 1923000      996      2.9932138     0.05852949         0.1875      158.11823 
 1924000      996      4.1572939     0.10724831         0.1875      369.27781 
 1925000      996      4.3964823     0.18373474         0.1875      661.65725 
 1926000      996      3.3265561     0.29175337         0.1875      996.15181 
 1927000      996      1.6765926     0.33745618         0.1875      1200.2741 
 1928000      996     0.81771505     0.27695324         0.1875      1156.5228 
 1929000      996     0.72351934     0.20485987         0.1875      949.94668 
 1930000      996     0.69727031     0.16178979         0.1875      697.21987 
 1931000      996     0.47909952     0.13477498         0.1875      495.75198 
 1932000      996     0.24752136     0.11115048         0.1875      386.33564 
 1933000      996       0.163327    0.089142072         0.1875      354.43098 
 1934000      996     0.21939675    0.070078885         0.1875      392.48645 
 1935000      996     0.31293439    0.059497023         0.1875      483.00841 
 1936000      996     0.31365433    0.056919136         0.1875      600.36631 
 1937000      996     0.21388104    0.056162414         0.1875       700.0946 
 1938000      996     0.11130561    0.048980636         0.1875      740.26212 
 1939000      996    0.067388637    0.039516548         0.1875      720.90711 
 1940000      996    0.068096167    0.034453578         0.1875       666.2681 
Loop time of 1.45486 on 80 procs for 20000 steps with 996 atoms, finish time Thu Sep  6 15:56:32 2018


Pair  time (%) = 0.10654 (7.32302)
Neigh time (%) = 0.00770743 (0.52977)
Comm  time (%) = 0.376059 (25.8484)
Outpt time (%) = 0.00972383 (0.668368)
Other time (%) = 0.954833 (65.6304)

Nlocal:    12.45 ave 35 max 0 min
Histogram: 47 1 0 0 0 0 0 0 25 7
Nghost:    29.35 ave 95 max 0 min
Histogram: 32 5 11 1 7 0 15 1 2 6
Neighs:    42.425 ave 138 max 0 min
Histogram: 48 0 0 0 0 0 10 12 6 4

Total # of neighbors = 3394
Ave neighs/atom = 3.40763
Neighbor list builds = 695
Dangerous builds = 0
  variable        nt    equal   ${nt}+1
  variable        nt    equal   36+1
  if "${nt} > 40" then "jump cycle.in loop4"
jump cycle.in loop3
  variable        dd    equal   2*(0.03-(${nt}-${grwNs})*${grwRt})
  variable        dd    equal   2*(0.03-(37-${grwNs})*${grwRt})
  variable        dd    equal   2*(0.03-(37-20)*${grwRt})
  variable        dd    equal   2*(0.03-(37-20)*0.0005)
  set             type  1  diameter  ${dd}
  set             type  1  diameter  0.043
  996 settings made for diameter
  run		  ${writeOutEvery}
  run		  20000
Setting up run at Thu Sep  6 15:56:32 2018

Memory usage per processor = 9.54823 Mbytes
    Step    Atoms         KinEng            ker         Volume            prs 
 1940000      996    0.063557968    0.030712363         0.1875     0.22598389 
 1941000      996     0.35050069    0.031108726         0.1875      4.3511464 
 1942000      996      1.3504764    0.035549085         0.1875      41.611146 
 1943000      996      2.6514721    0.058550347         0.1875      148.58646 
 1944000      996      3.6779122     0.10994786         0.1875      331.97089 
 1945000      996      3.8770567     0.18351708         0.1875      591.25823 
 1946000      996      2.8845527     0.28173493         0.1875      884.91474 
 1947000      996       1.517592     0.31025651         0.1875      1035.0075 
 1948000      996     0.72587291     0.26864822         0.1875       1010.842 
 1949000      996     0.61495988     0.19685184         0.1875       819.0153 
 1950000      996     0.59674556     0.14444396         0.1875      600.29224 
 1951000      996     0.40260434     0.11845909         0.1875      421.22674 
 1952000      996      0.2133052    0.093515452         0.1875      332.05551 
 1953000      996     0.16839951    0.078460376         0.1875       313.6118 
 1954000      996     0.24074306    0.064970439         0.1875      364.68943 
 1955000      996     0.29921126    0.059985958         0.1875      455.84381 
 1956000      996     0.25173011    0.052259766         0.1875      569.13227 
 1957000      996     0.13662117     0.04430403         0.1875      640.93125 
 1958000      996    0.076981104     0.03452826         0.1875      645.55952 
 1959000      996    0.078752739    0.028352738         0.1875      596.82448 
 1960000      996    0.074397724    0.024243452         0.1875      537.20725 
Loop time of 1.39545 on 80 procs for 20000 steps with 996 atoms, finish time Thu Sep  6 15:56:33 2018


Pair  time (%) = 0.105134 (7.53405)
Neigh time (%) = 0.0082987 (0.594698)
Comm  time (%) = 0.353449 (25.3287)
Outpt time (%) = 0.0044788 (0.320958)
Other time (%) = 0.924087 (66.2216)

Nlocal:    12.45 ave 38 max 0 min
Histogram: 48 0 0 0 0 0 1 12 16 3
Nghost:    27.7625 ave 99 max 0 min
Histogram: 38 10 0 3 5 4 11 1 4 4
Neighs:    42.2125 ave 141 max 0 min
Histogram: 48 0 0 0 0 3 11 9 4 5

Total # of neighbors = 3377
Ave neighs/atom = 3.39056
Neighbor list builds = 752
Dangerous builds = 0
  variable        nt    equal   ${nt}+1
  variable        nt    equal   37+1
  if "${nt} > 40" then "jump cycle.in loop4"
jump cycle.in loop3
  variable        dd    equal   2*(0.03-(${nt}-${grwNs})*${grwRt})
  variable        dd    equal   2*(0.03-(38-${grwNs})*${grwRt})
  variable        dd    equal   2*(0.03-(38-20)*${grwRt})
  variable        dd    equal   2*(0.03-(38-20)*0.0005)
  set             type  1  diameter  ${dd}
  set             type  1  diameter  0.042
  996 settings made for diameter
  run		  ${writeOutEvery}
  run		  20000
Setting up run at Thu Sep  6 15:56:33 2018

Memory usage per processor = 9.54823 Mbytes
    Step    Atoms         KinEng            ker         Volume            prs 
 1960000      996    0.069326959    0.021552549         0.1875     0.24649586 
 1961000      996     0.35066373    0.021864136         0.1875       3.259484 
 1962000      996       1.292583    0.026877729         0.1875      38.957745 
 1963000      996      2.4720926    0.048818101         0.1875      127.86714 
 1964000      996      3.3828574     0.10225422         0.1875      297.96731 
 1965000      996      3.4391236     0.17692411         0.1875      544.63824 
 1966000      996      2.5098312     0.24748618         0.1875      790.71591 
 1967000      996      1.2653875     0.27348445         0.1875      911.52211 
 1968000      996      0.6945977     0.24453684         0.1875       819.2292 
 1969000      996       0.591495     0.18993023         0.1875      616.82958 
 1970000      996     0.45562991     0.15846973         0.1875      430.47833 
 1971000      996     0.27282761     0.13324624         0.1875      315.79441 
 1972000      996     0.18192487     0.10432581         0.1875      281.28967 
 1973000      996     0.21504574    0.082821042         0.1875      309.23633 
 1974000      996     0.27782217    0.071189755         0.1875      386.10891 
 1975000      996     0.25035224    0.061765361         0.1875      485.91523 
 1976000      996       0.150576    0.051463632         0.1875      553.68103 
 1977000      996    0.087086757    0.041658889         0.1875      565.50803 
 1978000      996    0.081524083    0.035890288         0.1875      522.18153 
 1979000      996    0.066336171    0.030544707         0.1875      466.09333 
 1980000      996    0.039727232    0.025216315         0.1875      432.57172 
Loop time of 1.41059 on 80 procs for 20000 steps with 996 atoms, finish time Thu Sep  6 15:56:35 2018


Pair  time (%) = 0.104403 (7.4014)
Neigh time (%) = 0.00845514 (0.599404)
Comm  time (%) = 0.338028 (23.9636)
Outpt time (%) = 0.00442562 (0.313742)
Other time (%) = 0.955279 (67.7219)

Nlocal:    12.45 ave 40 max 0 min
Histogram: 48 0 0 0 0 1 10 4 10 7
Nghost:    26.2125 ave 103 max 0 min
Histogram: 48 0 0 4 4 8 8 3 1 4
Neighs:    42.1625 ave 161 max 0 min
Histogram: 48 0 0 0 5 7 8 7 3 2

Total # of neighbors = 3373
Ave neighs/atom = 3.38655
Neighbor list builds = 772
Dangerous builds = 0
  variable        nt    equal   ${nt}+1
  variable        nt    equal   38+1
  if "${nt} > 40" then "jump cycle.in loop4"
jump cycle.in loop3
  variable        dd    equal   2*(0.03-(${nt}-${grwNs})*${grwRt})
  variable        dd    equal   2*(0.03-(39-${grwNs})*${grwRt})
  variable        dd    equal   2*(0.03-(39-20)*${grwRt})
  variable        dd    equal   2*(0.03-(39-20)*0.0005)
  set             type  1  diameter  ${dd}
  set             type  1  diameter  0.041
  996 settings made for diameter
  run		  ${writeOutEvery}
  run		  20000
Setting up run at Thu Sep  6 15:56:35 2018

Memory usage per processor = 9.54823 Mbytes
    Step    Atoms         KinEng            ker         Volume            prs 
 1980000      996      0.0369566    0.022353959         0.1875     0.13140124 
 1981000      996     0.38362345    0.022341461         0.1875      2.1174368 
 1982000      996      1.3453943     0.02766426         0.1875      29.737326 
 1983000      996      2.4821611    0.052801474         0.1875      122.98258 
 1984000      996      3.1638344     0.10833041         0.1875      304.77503 
 1985000      996      2.9602853      0.1888557         0.1875      551.80244 
 1986000      996      1.8223078     0.26573446         0.1875      755.51508 
 1987000      996     0.87561715     0.24996265         0.1875      785.67824 
 1988000      996     0.64448311     0.19607446         0.1875      633.76115 
 1989000      996     0.55036884     0.15886496         0.1875      444.08926 
 1990000      996     0.34729966     0.12171418         0.1875      308.23379 
 1991000      996     0.20767461    0.092946509         0.1875      244.80542 
 1992000      996     0.18201726    0.074100498         0.1875      251.48796 
 1993000      996     0.23751451    0.062871546         0.1875      306.20858 
 1994000      996     0.23771924    0.056907815         0.1875      394.57104 
 1995000      996     0.17580839    0.052531708         0.1875       461.3723 
 1996000      996     0.10321927    0.046975321         0.1875      486.42228 
 1997000      996    0.080780945    0.038307463         0.1875      460.09083 
 1998000      996     0.06845966    0.030395456         0.1875      412.27987 
 1999000      996     0.05271693    0.024497639         0.1875      375.01644 
 2000000      996    0.033393616    0.018360078         0.1875      366.17413 
Loop time of 1.4142 on 80 procs for 20000 steps with 996 atoms, finish time Thu Sep  6 15:56:36 2018


Pair  time (%) = 0.103444 (7.31462)
Neigh time (%) = 0.00779997 (0.551545)
Comm  time (%) = 0.288013 (20.3658)
Outpt time (%) = 0.00445127 (0.314755)
Other time (%) = 1.01049 (71.4533)

Nlocal:    12.45 ave 42 max 0 min
Histogram: 48 0 0 0 1 10 5 0 7 9
Nghost:    25.6875 ave 107 max 0 min
Histogram: 48 0 0 3 10 3 10 2 0 4
Neighs:    41.45 ave 163 max 0 min
Histogram: 48 0 0 3 7 5 6 1 7 3

Total # of neighbors = 3316
Ave neighs/atom = 3.32932
Neighbor list builds = 713
Dangerous builds = 0
  variable        nt    equal   ${nt}+1
  variable        nt    equal   39+1
  if "${nt} > 40" then "jump cycle.in loop4"
jump cycle.in loop3
  variable        dd    equal   2*(0.03-(${nt}-${grwNs})*${grwRt})
  variable        dd    equal   2*(0.03-(40-${grwNs})*${grwRt})
  variable        dd    equal   2*(0.03-(40-20)*${grwRt})
  variable        dd    equal   2*(0.03-(40-20)*0.0005)
  set             type  1  diameter  ${dd}
  set             type  1  diameter  0.04
  996 settings made for diameter
  run		  ${writeOutEvery}
  run		  20000
Setting up run at Thu Sep  6 15:56:36 2018

Memory usage per processor = 9.54823 Mbytes
    Step    Atoms         KinEng            ker         Volume            prs 
 2000000      996    0.031009292    0.016227634         0.1875     0.11025526 
 2001000      996      0.4176531    0.016184953         0.1875      1.7180297 
 2002000      996      1.3592178    0.021034032         0.1875      28.961741 
 2003000      996      2.3746603    0.048445965         0.1875      129.08328 
 2004000      996      2.8472103     0.10820502         0.1875      311.29923 
 2005000      996      2.2857099      0.1839472         0.1875      557.08526 
 2006000      996      1.2096436     0.22855115         0.1875       685.9927 
 2007000      996     0.66209434     0.20720977         0.1875      611.54878 
 2008000      996     0.52578775     0.15940054         0.1875      426.92899 
 2009000      996     0.35439849     0.12651574         0.1875      281.88354 
 2010000      996     0.21624844     0.10227094         0.1875       210.3252 
 2011000      996     0.18491109    0.080648679         0.1875      206.60258 
 2012000      996     0.22914908    0.064916273         0.1875      254.98051 
 2013000      996     0.24184596     0.05698382         0.1875      333.35273 
 2014000      996     0.18052697    0.050490592         0.1875      396.37054 
 2015000      996     0.11807745    0.045698162         0.1875      417.66503 
 2016000      996     0.07812879    0.037893076         0.1875       393.9059 
 2017000      996    0.065192837    0.029719713         0.1875      356.48673 
 2018000      996     0.04273569    0.024870237         0.1875      327.88878 
 2019000      996    0.035907447    0.019273012         0.1875      321.83764 
 2020000      996    0.034972758     0.01603591         0.1875      333.59125 
Loop time of 1.45029 on 80 procs for 20000 steps with 996 atoms, finish time Thu Sep  6 15:56:37 2018


Pair  time (%) = 0.103733 (7.15256)
Neigh time (%) = 0.00766976 (0.528844)
Comm  time (%) = 0.262821 (18.122)
Outpt time (%) = 0.00448176 (0.309025)
Other time (%) = 1.07158 (73.8876)

Nlocal:    12.45 ave 47 max 0 min
Histogram: 48 0 0 3 9 4 0 1 12 3
Nghost:    26.0625 ave 112 max 0 min
Histogram: 48 0 1 3 12 1 11 0 0 4
Neighs:    41.825 ave 183 max 0 min
Histogram: 48 0 4 8 4 1 3 4 6 2

Total # of neighbors = 3346
Ave neighs/atom = 3.35944
Neighbor list builds = 692
Dangerous builds = 0
  variable        nt    equal   ${nt}+1
  variable        nt    equal   40+1
  if "${nt} > 40" then "jump cycle.in loop4"
jump cycle.in loop4
write_restart   cycle.restart
