LIGGGHTS (Version LIGGGHTS-PUBLIC 3.8.0, compiled 2023-04-28-19:34:04 by howard, git commit bbd23c8521fe0a4f3f5bfd0d3dc9a7dddd68d90b)
#------------------General Settings for Granular Systems--------------------------------------------
atom_style	granular
atom_modify	map           array
boundary	f f f
newton		off
communicate	single        vel       yes
units		si
neighbor        0.0002        bin
neigh_modify    delay         0
echo            both
variable        dt            equal     1e-5
variable        nStepsRun     equal     10.0/${dt}
variable        nStepsRun     equal     10.0/1e-05
variable        writeOutEvery equal     0.2/${dt}
variable        writeOutEvery equal     0.2/1e-05
variable        thermofreq    equal     0.05/${dt}
variable        thermofreq    equal     0.05/1e-05
timestep ${dt}
timestep 1e-05

#--------------------------Box Information---------------------------------------------------------
variable       skfstl        equal     1/500
variable       x1y1          equal    -0.5*${skfstl}*2500
variable       x1y1          equal    -0.5*0.002*2500
variable       x2y2          equal     0.5*${skfstl}*2500
variable       x2y2          equal     0.5*0.002*2500
variable       z1            equal     0.0
#variable       z1            equal    -0.5*${skfstl}*2500
variable       z2            equal     1*${skfstl}*2500
variable       z2            equal     1*0.002*2500

#--------------------------Model Geometry---------------------------------------------------------
variable        r0            equal     0.02
variable        grwth         equal     0.01                   # Overall growth of each direction
variable        grwFq         equal     1000                    # The growth frequncy, every # of steps
variable        grwNs         equal     20                      # The total number of growth step
variable        grwRt         equal     ${grwth}/${grwNs}       # Growth rate at each growth step
variable        grwRt         equal     0.01/${grwNs}       
variable        grwRt         equal     0.01/20       

#--------------------------Material Information---------------------------------------------------------
variable        cf_pp         equal     1.0
variable        cf_pw         equal     0.2
variable        cf_ww         equal     0.2
variable        cof_pp        equal     0.2
variable        cof_pw        equal     0.1
variable        cof_ww        equal     0.1
variable        corf_pp       equal     0.
variable        corf_pw       equal     0.2
variable        corf_ww       equal     0.2
variable        Yp            equal     1e+7
variable        Yw            equal     5.1e+6

#---------------------Generate Box----------------------------------------
region          reg block ${x1y1} ${x2y2} ${x1y1} ${x2y2} ${z1} ${z2}  units box
region          reg block -2.5 ${x2y2} ${x1y1} ${x2y2} ${z1} ${z2}  units box
region          reg block -2.5 2.5 ${x1y1} ${x2y2} ${z1} ${z2}  units box
region          reg block -2.5 2.5 -2.5 ${x2y2} ${z1} ${z2}  units box
region          reg block -2.5 2.5 -2.5 2.5 ${z1} ${z2}  units box
region          reg block -2.5 2.5 -2.5 2.5 0 ${z2}  units box
region          reg block -2.5 2.5 -2.5 2.5 0 5  units box
create_box      2 reg
Created orthogonal box = (-2.5 -2.5 0) to (2.5 2.5 5)
  1 by 1 by 1 MPI processor grid

#---------------------Assign Material Properties to particle and wall----------------------------------------
fix 		m1 all property/global youngsModulus peratomtype ${Yp} ${Yw}
fix 		m1 all property/global youngsModulus peratomtype 10000000 ${Yw}
fix 		m1 all property/global youngsModulus peratomtype 10000000 5100000
fix 		m2 all property/global poissonsRatio peratomtype 0.3 0.3
fix 		m3 all property/global coefficientRestitution peratomtypepair 2 ${cf_pp} ${cf_pw} ${cf_pw} ${cf_ww}
fix 		m3 all property/global coefficientRestitution peratomtypepair 2 1 ${cf_pw} ${cf_pw} ${cf_ww}
fix 		m3 all property/global coefficientRestitution peratomtypepair 2 1 0.2 ${cf_pw} ${cf_ww}
fix 		m3 all property/global coefficientRestitution peratomtypepair 2 1 0.2 0.2 ${cf_ww}
fix 		m3 all property/global coefficientRestitution peratomtypepair 2 1 0.2 0.2 0.2
fix             m4 all property/global coefficientFriction peratomtypepair 2 ${cof_pp} ${cof_pw} ${cof_pw} ${cof_ww}
fix             m4 all property/global coefficientFriction peratomtypepair 2 0.2 ${cof_pw} ${cof_pw} ${cof_ww}
fix             m4 all property/global coefficientFriction peratomtypepair 2 0.2 0.1 ${cof_pw} ${cof_ww}
fix             m4 all property/global coefficientFriction peratomtypepair 2 0.2 0.1 0.1 ${cof_ww}
fix             m4 all property/global coefficientFriction peratomtypepair 2 0.2 0.1 0.1 0.1
fix             m5 all property/global coefficientRollingFriction peratomtypepair 2 ${corf_pp} ${corf_pw} ${corf_pw} ${corf_ww}
fix             m5 all property/global coefficientRollingFriction peratomtypepair 2 0 ${corf_pw} ${corf_pw} ${corf_ww}
fix             m5 all property/global coefficientRollingFriction peratomtypepair 2 0 0.2 ${corf_pw} ${corf_ww}
fix             m5 all property/global coefficientRollingFriction peratomtypepair 2 0 0.2 0.2 ${corf_ww}
fix             m5 all property/global coefficientRollingFriction peratomtypepair 2 0 0.2 0.2 0.2
fix             m6 all property/global cohesionEnergyDensity peratomtypepair 2 500 0 0 0

#Define pair style
pair_style gran model hertz tangential history cohesion sjkr #Hertzian with cohesion
pair_coeff	* *

fix Bsphere all mesh/surface file data/box.stl type 2 scale 1.0
fix wall all wall/gran model hertz tangential history rolling_friction epsd2 mesh n_meshes 1 meshes Bsphere
WARNING: 
	The contact model you specified is not located in any whitelist.
	Because of this the model will be run in an unoptimized version (increasing runtime by up to 20%).
	In order to optimize this model you have the following options:
		(i)  Run the genAutoExamplesWhitelist.sh script in your LIGGGHTS(R) source folder to automatically parse the input script
		(ii) Add the model combination by hand to your style_contact_model_user.whitelist that can be found in your LIGGGHTS(R) source folder
		(iii) Use the ENABLE_MODEL_* flag when building with cmake.
	If you perform one of the steps above LIGGGHTS(R) needs to be recompiled to generate the optimized code.

 (../contact_models.h:365)

fix xwalls1 all wall/gran model hertz tangential history primitive type 1 xplane ${x1y1}
fix xwalls1 all wall/gran model hertz tangential history primitive type 1 xplane -2.5
fix xwalls2 all wall/gran model hertz tangential history primitive type 1 xplane ${x2y2}
fix xwalls2 all wall/gran model hertz tangential history primitive type 1 xplane 2.5
fix ywalls1 all wall/gran model hertz tangential history primitive type 1 yplane ${x1y1}
fix ywalls1 all wall/gran model hertz tangential history primitive type 1 yplane -2.5
fix ywalls2 all wall/gran model hertz tangential history primitive type 1 yplane ${x2y2}
fix ywalls2 all wall/gran model hertz tangential history primitive type 1 yplane 2.5
fix zwalls2 all wall/gran model hertz tangential history primitive type 1 zplane ${z1}
fix zwalls2 all wall/gran model hertz tangential history primitive type 1 zplane 0

fix pts1 all particletemplate/sphere 15485863 atom_type 1 density constant 2500 radius constant ${r0}
fix pts1 all particletemplate/sphere 15485863 atom_type 1 density constant 2500 radius constant 0.02
fix pdd1 all particledistribution/discrete 86028157 1 pts1 1

fix ins_mesh all mesh/surface/planar file data/ins_face.stl heal auto_remove_duplicates type 2 scale 1.0
fix ins all insert/stream seed 86028121 distributiontemplate pdd1                 maxattempt 1000 nparticles 1800 particlerate 2000 overlapcheck yes all_in yes vel constant 0 0 -2.0                 insertion_face ins_mesh extrude_length 0.2


#apply nve integration to all particles
fix		integr all nve/sphere
fix		gravi all  gravity 9.81 vector 0.0 0.0 -1.0

#------------------------Output Settings------------------------------------------------------
# Output to screen
compute        ker   all   erotate/sphere            # Compute the rotational kinetic energy of all particles
compute        prs   all   pressure thermo_temp                  # Total pressure on ghost particles
thermo_style	custom step atoms ke c_ker vol c_prs
thermo		${thermofreq}
thermo		5000
thermo_modify	lost ignore norm no
# Output to file
dump              2 all custom ${writeOutEvery} post/pack.lmp id type x y z radius fx fy fz
dump              2 all custom 20000 post/pack.lmp id type x y z radius fx fy fz
dump_modify       2 format "%7.0g %4.0g %15.10g %15.10g %15.10g %15.10g %15.10g %15.10g %15.10g"
#dump		dmp all custom/vtk ${writeOutEvery} post/dump*.sphere.vtk type mass x y z id vx vy vz fx fy fz omegax omegay omegaz radius
#dump            dumpSphere all stl ${writeOutEvery} post/dump_Sphere*.stl Bsphere

#------------------------Run the calculation------------------------------------------------------
# 1. Run first period: relax the system
run		${nStepsRun}
run		1000000
Setting up run at Sat May  6 13:47:42 2023

INFO: Particle insertion ins: 200.000000 particles every 10000 steps - particle rate 2000.000000, (mass rate 1.675516e+02)
      1800 particles (mass 1.507964e+02) within 90000 steps
Memory usage per processor = 69.2115 Mbytes
    Step    Atoms         KinEng            ker         Volume            prs 
       0        0              0              0            125              0 
INFO: Particle insertion ins: inserted 200 particle templates (mass 1.675516e+01) at step 1
 - a total of 200 particle templates (mass 1.675516e+01) inserted so far.
    5000      200      36.740049              0            125              0 
   10000      200      49.427502              0            125              0 
INFO: Particle insertion ins: inserted 200 particle templates (mass 1.675516e+01) at step 10001
 - a total of 400 particle templates (mass 3.351032e+01) inserted so far.
   15000      400      107.21183              0            125              0 
   20000      400      144.95349              0            125              0 
INFO: Particle insertion ins: inserted 200 particle templates (mass 1.675516e+01) at step 20001
 - a total of 600 particle templates (mass 5.026548e+01) inserted so far.
   25000      600      232.24485              0            125              0 
   30000      600       303.2699              0            125              0 
INFO: Particle insertion ins: inserted 200 particle templates (mass 1.675516e+01) at step 30001
 - a total of 800 particle templates (mass 6.702064e+01) inserted so far.
   35000      800      429.13027              0            125              0 
   40000      800      543.55917              0            125              0 
INFO: Particle insertion ins: inserted 200 particle templates (mass 1.675516e+01) at step 40001
 - a total of 1000 particle templates (mass 8.377580e+01) inserted so far.
   45000     1000      714.87643              0            125              0 
   50000     1000      878.64466              0            125              0 
INFO: Particle insertion ins: inserted 200 particle templates (mass 1.675516e+01) at step 50001
 - a total of 1200 particle templates (mass 1.005310e+02) inserted so far.
   55000     1200      1104.1477              0            125              0 
   60000     1200      1325.8097              0            125              0 
INFO: Particle insertion ins: inserted 200 particle templates (mass 1.675516e+01) at step 60001
 - a total of 1400 particle templates (mass 1.172861e+02) inserted so far.
   65000     1400        1613.11              0            125              0 
   70000     1400      1901.0883              0            125              0 
INFO: Particle insertion ins: inserted 200 particle templates (mass 1.675516e+01) at step 70001
 - a total of 1600 particle templates (mass 1.340413e+02) inserted so far.
   75000     1600      2258.6419              0            125              0 
   80000     1600       2620.132              0            125              0 
INFO: Particle insertion ins: inserted 200 particle templates (mass 1.675516e+01) at step 80001
 - a total of 1800 particle templates (mass 1.507964e+02) inserted so far.
   85000     1800      2733.4176              0            125              0 
   90000     1800      2794.8717     0.40905729            125              0 
   95000     1800      2805.3524     0.67030408            125              0 
  100000     1800      2800.0985       1.556749            125    0.040718543 
  105000     1800      2781.6316      3.3046035            125   0.0040411108 
  110000     1800      2742.1882      5.2658301            125    0.048812928 
  115000     1800      2612.4459      8.4621471            125    0.037374004 
  120000     1800      2555.8173       10.32131            125              0 
  125000     1800      2452.1843      11.972425            125              0 
  130000     1800      2345.8175      14.346787            125   0.0037906688 
  135000     1800       2213.382      16.145116            125   0.0032593483 
  140000     1800      2063.4178      18.120809            125    0.022921931 
  145000     1800      1867.2339      20.226874            125   0.0040195425 
  150000     1800       1674.404      23.730606            125    0.037596126 
  155000     1800      1454.9022      25.939791            125    0.039097332 
  160000     1800      1208.1771        27.4771            125     0.03417835 
  165000     1800      838.36874      29.259281            125     0.02494486 
  170000     1800      460.14708       30.17097            125  7.8197604e-05 
  175000     1800      345.88086      29.025656            125    0.027780611 
  180000     1800      290.24839      26.686492            125    0.014339028 
  185000     1800      257.85739       24.78316            125    0.020978082 
  190000     1800      227.39168      23.617027            125              0 
  195000     1800      219.39108      22.566687            125   0.0027071812 
  200000     1800      208.85471      20.710141            125    0.018095405 
  205000     1800      204.40982      18.732495            125    0.011388896 
  210000     1800      191.54294      17.548177            125    0.022085638 
  215000     1800      186.07419        15.6139            125    0.023818808 
  220000     1800      181.82628      14.058909            125    0.045585463 
  225000     1800      164.66403      13.195146            125    0.052079975 
  230000     1800      148.95425      12.409725            125    0.029709596 
  235000     1800      133.23758      11.320066            125    0.021950424 
  240000     1800       100.9778      10.772745            125    0.022950964 
  245000     1800      67.698532      9.9836689            125    0.017320465 
  250000     1800      35.926706      8.9990507            125    0.012124342 
  255000     1800      27.963151      7.7711925            125    0.040079549 
  260000     1800      22.168037      6.8510287            125     0.01981495 
  265000     1800        19.8596      5.9997256            125   0.0044638764 
  270000     1800      16.040566       5.397029            125     0.01644978 
  275000     1800      11.943392      4.8622242            125   0.0089039907 
  280000     1800      7.9140995      4.3470817            125    0.010561165 
  285000     1800      6.3074427      3.9616859            125   0.0094161636 
  290000     1800      4.9921167      3.6064486            125   0.0025533746 
  295000     1800      3.7626035      3.3315603            125   0.0057522875 
  300000     1800       2.794465      3.0636231            125   0.0017693412 
  305000     1800      2.1699453       2.898258            125   0.0026692616 
  310000     1800      1.6958594      2.7380091            125   0.0063540697 
  315000     1800      1.3251927      2.5900273            125  0.00057447678 
  320000     1800      1.0222621      2.4302146            125  0.00045902374 
  325000     1800     0.74455919      2.3442784            125   0.0010372867 
  330000     1800     0.54402079      2.2726707            125  1.9953951e-06 
  335000     1800     0.39441413       2.225577            125   0.0018960553 
  340000     1800     0.28889521       2.184596            125  0.00011762364 
  345000     1800     0.20674542      2.1502776            125   0.0010121575 
  350000     1800     0.14757559      2.1223463            125  0.00023667101 
  355000     1800     0.10248924      2.0971541            125  4.8705174e-05 
  360000     1800    0.065929276      2.0851441            125  7.4597721e-05 
  365000     1800    0.044222718      2.0767289            125  1.6650071e-07 
  370000     1800    0.028069053      2.0674541            125  3.3808743e-06 
  375000     1800    0.016912376      2.0639087            125  3.7649048e-05 
  380000     1800   0.0099057106      2.0610988            125  2.0643777e-06 
  385000     1800    0.004547772      2.0562636            125  1.1020547e-06 
  390000     1800   0.0018588168      2.0554456            125  9.1299735e-07 
  395000     1800  0.00071155982      2.0549111            125  1.9662487e-06 
  400000     1800  0.00018760624      2.0546402            125  8.3271957e-07 
  405000     1800  2.3730522e-05      2.0545069            125  2.1011262e-06 
  410000     1800  1.2987181e-06      2.0544358            125  7.4074763e-07 
  415000     1800  8.5043554e-07      2.0543729            125  1.9579169e-06 
  420000     1800  4.8334567e-07        2.05431            125  9.2534262e-07 
  425000     1800   2.905186e-07      2.0542503            125  1.7041587e-06 
  430000     1800  1.8248357e-07      2.0541879            125  1.0238984e-06 
  435000     1800  1.0043102e-07      2.0541302            125  1.4866957e-06 
  440000     1800  6.9160137e-08       2.054069            125  1.2155145e-06 
  445000     1800   3.526922e-08      2.0540124            125  1.3439723e-06 
  450000     1800  2.6232693e-08      2.0539528            125  1.3090056e-06 
  455000     1800  1.2564953e-08      2.0538969            125  1.2521774e-06 
  460000     1800  9.7297663e-09       2.053839            125  1.4019985e-06 
  465000     1800  4.4097992e-09      2.0537838            125  1.2218952e-06 
  470000     1800  3.4740761e-09      2.0537276            125  1.4199067e-06 
  475000     1800  1.5062327e-09      2.0536731            125  1.2104799e-06 
  480000     1800  1.1817418e-09      2.0536185            125  1.4253827e-06 
  485000     1800  5.0972663e-10      2.0535648            125  1.2293931e-06 
  490000     1800  4.0843615e-10      2.0535116            125  1.3984386e-06 
  495000     1800  1.9976136e-10      2.0534588            125  1.2481365e-06 
  500000     1800  1.6930282e-10      2.0534069            125  1.3734887e-06 
  505000     1800  1.0735403e-10      2.0533552            125  1.2767872e-06 
  510000     1800  9.1973014e-11      2.0533045            125  1.3449178e-06 
  515000     1800  6.8243073e-11      2.0532539            125  1.2967305e-06 
  520000     1800  5.4862808e-11      2.0532043            125  1.3254227e-06 
  525000     1800  4.1066341e-11      2.0531549            125  1.3157787e-06 
  530000     1800  2.9359418e-11      2.0531064            125  1.3112806e-06 
  535000     1800   2.003213e-11      2.0530582            125  1.3249604e-06 
  540000     1800  1.2315546e-11      2.0530108            125  1.3044972e-06 
  545000     1800  7.2270117e-12      2.0529638            125   1.330871e-06 
  550000     1800   3.487944e-12      2.0529175            125  1.3023345e-06 
  555000     1800  1.5360633e-12      2.0528716            125  1.3305168e-06 
  560000     1800  4.4182815e-13      2.0528264            125  1.3035287e-06 
  565000     1800   1.777467e-13      2.0527818            125  1.3287757e-06 
  570000     1800  1.9783674e-13      2.0527377            125   1.306577e-06 
  575000     1800  4.2329712e-13      2.0526942            125  1.3249008e-06 
  580000     1800  6.1537404e-13      2.0526512            125  1.3100139e-06 
  585000     1800   7.559585e-13      2.0526089            125  1.3215976e-06 
  590000     1800  7.8943534e-13       2.052567            125   1.313368e-06 
  595000     1800  7.4687084e-13      2.0525258            125  1.3184458e-06 
  600000     1800  6.4102608e-13      2.0524851            125  1.3158187e-06 
  605000     1800  5.0782971e-13       2.052445            125  1.3164676e-06 
  610000     1800  3.7032125e-13      2.0524055            125   1.317548e-06 
  615000     1800   2.481607e-13      2.0523665            125  1.3151827e-06 
  620000     1800  1.5045949e-13      2.0523281            125  1.3183238e-06 
  625000     1800  8.0217124e-14      2.0522903            125  1.3147584e-06 
  630000     1800  3.5433255e-14      2.0522531            125  1.3185672e-06 
  635000     1800  1.1143878e-14      2.0522164            125  1.3147768e-06 
  640000     1800  1.3581631e-15      2.0521803            125  1.3183082e-06 
  645000     1800   1.193437e-12      2.0521447            125  1.3151425e-06 
  650000     1800  4.4378406e-11      2.0521097            125  1.3179043e-06 
  655000     1800  4.5024834e-11      2.0520752            125  1.3156023e-06 
  660000     1800  2.8083417e-13      2.0520413            125  1.3174031e-06 
  665000     1800  1.2033206e-13      2.0520079            125  1.3160649e-06 
  670000     1800  1.5793876e-12       2.051975            125   1.316994e-06 
  675000     1800  1.4330833e-11      2.0519426            125  1.3164363e-06 
  680000     1800  1.2879882e-11      2.0519108            125  1.3166669e-06 
  685000     1800  1.7464731e-12      2.0518794            125  1.3166922e-06 
  690000     1800  2.3443437e-13      2.0518487            125  1.3164783e-06 
  695000     1800  3.0245736e-12      2.0518184            125  1.3168345e-06 
  700000     1800  6.6100596e-12      2.0517887            125  1.3163824e-06 
  705000     1800  3.3723464e-12      2.0517595            125  1.3168812e-06 
  710000     1800  2.5818858e-12      2.0517309            125  1.3163745e-06 
  715000     1800  6.8260298e-13      2.0517027            125  1.3168662e-06 
  720000     1800  2.4098324e-12      2.0516751            125  1.3164094e-06 
  725000     1800   4.076691e-12      2.0516481            125  1.3168133e-06 
  730000     1800  6.6695696e-13      2.0516215            125  1.3164712e-06 
  735000     1800  2.4791544e-12      2.0515955            125  1.3167505e-06 
  740000     1800  9.7946046e-13      2.0515701            125  1.3165333e-06 
  745000     1800  1.3685108e-12      2.0515451            125  1.3166898e-06 
  750000     1800  2.9070039e-12      2.0515207            125   1.316588e-06 
  755000     1800  4.0190269e-14      2.0514968            125  1.3166436e-06 
  760000     1800  1.8909534e-12      2.0514735            125  1.3166265e-06 
  765000     1800  1.1136227e-12      2.0514506            125  1.3166122e-06 
  770000     1800  5.9780039e-13      2.0514283            125    1.31665e-06 
  775000     1800  2.1389406e-12      2.0514066            125  1.3165966e-06 
  780000     1800  3.2573888e-14      2.0513853            125  1.3166596e-06 
  785000     1800  1.2259874e-12      2.0513646            125  1.3165919e-06 
  790000     1800  1.1101214e-12      2.0513444            125  1.3166596e-06 
  795000     1800  1.8269337e-13      2.0513248            125  1.3165956e-06 
  800000     1800  1.5289136e-12      2.0513057            125  1.3166537e-06 
  805000     1800  1.6860122e-13      2.0512871            125  1.3166029e-06 
  810000     1800  6.8648197e-13       2.051269            125  1.3166454e-06 
  815000     1800  1.0024328e-12      2.0512515            125  1.3166115e-06 
  820000     1800  2.2761393e-14      2.0512345            125  1.3166371e-06 
  825000     1800  1.0310208e-12       2.051218            125  1.3166192e-06 
  830000     1800  2.8999147e-13      2.0512021            125  1.3166302e-06 
  835000     1800  3.2488738e-13      2.0511867            125  1.3166251e-06 
  840000     1800  8.3144458e-13      2.0511718            125  1.3166255e-06 
  845000     1800  3.1996402e-15      2.0511575            125  1.3166287e-06 
  850000     1800  6.4438449e-13      2.0511436            125  1.3166228e-06 
  855000     1800    3.52584e-13      2.0511303            125  1.3166305e-06 
  860000     1800  1.2015264e-13      2.0511176            125  1.3166218e-06 
  865000     1800  6.3763554e-13      2.0511054            125  1.3166308e-06 
  870000     1800   4.066719e-14      2.0510937            125   1.316622e-06 
  875000     1800  3.6657379e-13      2.0510825            125  1.3166303e-06 
  880000     1800  3.5668335e-13      2.0510719            125  1.3166229e-06 
  885000     1800  2.6943279e-14      2.0510617            125  1.3166292e-06 
  890000     1800  4.5296068e-13      2.0510522            125   1.316624e-06 
  895000     1800  8.6316672e-14      2.0510431            125  1.3166281e-06 
  900000     1800  1.8447851e-13      2.0510346            125  1.3166251e-06 
  905000     1800  3.1885182e-13      2.0510266            125  1.3166271e-06 
  910000     1800  5.1684495e-16      2.0510192            125  1.3166259e-06 
  915000     1800  2.9720148e-13      2.0510122            125  1.3166264e-06 
  920000     1800  1.1751841e-13      2.0510058            125  1.3166265e-06 
  925000     1800  7.7644468e-14          2.051            125  1.3166259e-06 
  930000     1800  2.5875401e-13      2.0509946            125  1.3166268e-06 
  935000     1800  6.4843153e-15      2.0509898            125  1.3166257e-06 
  940000     1800  1.7851939e-13      2.0509855            125  1.3166269e-06 
  945000     1800  1.2831001e-13      2.0509818            125  1.3166257e-06 
  950000     1800  2.3824406e-14      2.0509786            125  1.3166269e-06 
  955000     1800  1.9296295e-13      2.0509759            125  1.3166258e-06 
  960000     1800  2.2570636e-14      2.0509737            125  1.3166267e-06 
  965000     1800  3.0665695e-10       2.050972            125  1.3166191e-06 
  970000     1800  2.5588494e-10      2.0509703            125  1.3166292e-06 
  975000     1800  8.6932489e-11      2.0509685            125  1.3166237e-06 
  980000     1800  9.2894586e-12      2.0509668            125  1.3166296e-06 
  985000     1800  1.4263812e-12      2.0509651            125  1.3166241e-06 
  990000     1800  1.8233528e-11      2.0509634            125  1.3166276e-06 
  995000     1800  8.5370018e-11      2.0509617            125   1.316624e-06 
 1000000     1800  1.3668234e-10      2.0509601            125  1.3166259e-06 
Loop time of 3096.6 on 1 procs for 1000000 steps with 1800 atoms, finish time Sat May  6 14:39:19 2023


Pair  time (%) = 8.60751 (0.277966)
Neigh time (%) = 973.382 (31.4339)
Comm  time (%) = 7.97701 (0.257606)
Outpt time (%) = 0.174618 (0.00563902)
Other time (%) = 2106.46 (68.0249)

Nlocal:    1800 ave 1800 max 1800 min
Histogram: 1 0 0 0 0 0 0 0 0 0
Nghost:    0 ave 0 max 0 min
Histogram: 1 0 0 0 0 0 0 0 0 0
Neighs:    5 ave 5 max 5 min
Histogram: 1 0 0 0 0 0 0 0 0 0

Total # of neighbors = 5
Ave neighs/atom = 0.00277778
Neighbor list builds = 130152
Dangerous builds = 1767

write_restart   pack.restart
