ITEM: TIMESTEP
4000
ITEM: NUMBER OF ATOMS
2
ITEM: BOX BOUNDS ff ff ff
-0.05 0.05
-0.05 0.05
0 0.1
ITEM: ATOMS id type x y z ix iy iz vx vy vz fx fy fz omegax omegay omegaz radius 
1 2 0 0 0.014 0 0 0 0 0 0.1 0 0 0 0 0 0 0.0040004 
2 2 0 0 0.086 0 0 0 0 0 -0.1 0 0 0 0 0 0 0.0040004 
