ITEM: TIMESTEP
0
ITEM: NUMBER OF ATOMS
0
ITEM: BOX BOUNDS ff ff ff
-0.5 0.5
-0.5 0.5
-0.5 0.5
ITEM: ATOMS id type x y z radius fx fy fz 
ITEM: TIMESTEP
20000
ITEM: NUMBER OF ATOMS
36
ITEM: BOX BOUNDS ff ff ff
-0.5 0.5
-0.5 0.5
-0.5 0.5
ITEM: ATOMS id type x y z radius fx fy fz 
 7e-310 7e-310  0.009744001723  -0.05048079165   -0.2269274259          0.0145               0               0   -0.3131854894 
   -0.3 -0.3   0.04562280627  0.009183482054   -0.2305401561          0.0145     2.277828771     0.655345084    -6.927861349 
     -7   -7  -0.05631909237   0.02892574713   -0.2265522422          0.0145    -3.485409191     1.775896768    -11.00761377 
 -1e+01 -1e+01   0.05619629005  -0.01950631409   -0.1823920122          0.0145               0               0   -0.3131854894 
   -0.3 -0.3  -0.03328565021   0.05509780597   -0.1541177959          0.0145               0               0   -0.3131854894 
   -0.3 -0.3  -0.04251649232  0.008492085697   -0.1430120358          0.0145               0               0   -0.3131854894 
   -0.3 -0.3 -0.0009701874571  -0.04664498254   -0.1233580484          0.0145               0               0   -0.3131854894 
   -0.3 -0.3   0.04309257715    0.0132370541  -0.09595084806          0.0145               0               0   -0.3131854894 
   -0.3 -0.3  0.004070537011   0.04296338393  -0.08291711641          0.0145               0               0   -0.3131854894 
   -0.3 -0.3  -0.03965382212  -0.04892797916  -0.07067625852          0.0145               0               0   -0.3131854894 
   -0.3 -0.3   0.02769375409  -0.01799523653  -0.07510624896          0.0145               0               0   -0.3131854894 
   -0.3 -0.3  -0.03800218832    0.0545832981  -0.07581643343          0.0145               0               0   -0.3131854894 
   -0.3 -0.3  -0.01800187993   0.01494215207  -0.05119342294          0.0145               0               0   -0.3131854894 
   -0.3 -0.3   0.05458511226  -0.01578006907  -0.04635384896          0.0145               0               0   -0.3131854894 
   -0.3 -0.3  -0.04446809957 -0.002724399483   -0.0435371125          0.0145               0               0   -0.3131854894 
   -0.3 -0.3   0.02983138172   0.06040550218  -0.04412554743          0.0145               0               0   -0.3131854894 
   -0.3 -0.3  -0.05059372153   0.05914410387  -0.01170402975          0.0145               0               0   -0.3131854894 
   -0.3 -0.3  0.006327445915 -0.002601648978  0.004891589194          0.0145               0               0   -0.3131854894 
   -0.3 -0.3 -0.007132844738  -0.07285358955   0.07449382337          0.0145               0               0   -0.3131854894 
   -0.3 -0.3  -0.05082724624  -0.03948153035   0.08706097609          0.0145               0               0   -0.3131854894 
   -0.3 -0.3   0.03998237921 -0.005205202351   0.09159760224          0.0145               0               0   -0.3131854894 
   -0.3 -0.3 -0.009246868166 0.0009404319412   0.09776707622          0.0145               0               0   -0.3131854894 
   -0.3 -0.3  -0.05969804674   0.02272783618   0.09864479827          0.0145               0               0   -0.3131854894 
   -0.3 -0.3   0.02192704534  0.009092031997    0.1174839023          0.0145               0               0   -0.3131854894 
   -0.3 -0.3    0.0704845237   0.01735546989    0.1121522456          0.0145               0               0   -0.3131854894 
   -0.3 -0.3  -0.03994832872   0.06381989353    0.1337551184          0.0145               0               0   -0.3131854894 
   -0.3 -0.3   0.07008619251 -0.004971184087    0.1424159903          0.0145               0               0   -0.3131854894 
   -0.3 -0.3  -0.02778568066   0.02469964814    0.1633893065          0.0145               0               0   -0.3131854894 
   -0.3 -0.3  0.007921521857  -0.02806667391     0.168129578          0.0145               0               0   -0.3131854894 
   -0.3 -0.3  -0.01762937709   0.05535387859    0.1709801521          0.0145               0               0   -0.3131854894 
   -0.3 -0.3  -0.02334101174   0.02755443652    0.2000003892          0.0145               0               0   -0.3131854894 
   -0.3 -0.3  -0.07180111546 -0.009173959036    0.2334351469          0.0145               0               0   -0.3131854894 
   -0.3 -0.3  0.007192947477   0.06037382071    0.2374263515          0.0145               0               0   -0.3131854894 
   -0.3 -0.3   0.04020992553  -0.03895437413    0.2439333889          0.0145               0               0   -0.3131854894 
   -0.3 -0.3   0.01475575753   0.00681856569    0.2664411239          0.0145               0               0   -0.3131854894 
   -0.3 -0.3   0.06189262209 -0.007958459342    0.2761330392          0.0145               0               0   -0.3131854894 
ITEM: TIMESTEP
40000
ITEM: NUMBER OF ATOMS
72
ITEM: BOX BOUNDS ff ff ff
-0.5 0.5
-0.5 0.5
-0.5 0.5
ITEM: ATOMS id type x y z radius fx fy fz 
 7e-310 7e-310  -0.03362691517  -0.06313429742   -0.2230488513          0.0145   0.04955471255   -0.1204322385   -0.3060610102 
   -0.3 -0.3  0.008616869465   -0.0632238272   -0.2257643568          0.0145   0.01377562277   0.09072520975  -0.02170722829 
  -0.02 -0.02   0.05296406903  -0.04838925415   -0.2223023936          0.0145               0               0   -0.3131854894 
   -0.3 -0.3  -0.04534529715  -0.03705207838   -0.2273451615          0.0145   0.01032434152    0.0529134859     0.345445986 
    0.3  0.3   0.01400548482  -0.03392408288   -0.2317855096          0.0145      3.24034293    -1.806479902    -0.102032475 
   -0.1 -0.1  -0.01403067859  -0.02925383553    -0.232704047          0.0145    -2.388380737   -0.2164102481   -0.2714108784 
   -0.3 -0.3  -0.05347875907  -0.00375131351   -0.2284292333          0.0145    0.1053223989   0.01259100074  -0.02263112534 
  -0.02 -0.02  -0.02431295262 -0.002286572329   -0.2334958382          0.0145   -0.4626456858    0.5837055786   -0.1199634639 
   -0.1 -0.1  0.005136041061  -0.00659493766   -0.2349390312          0.0145   -0.2977611094     1.553530646    0.7331493387 
    0.7  0.7   0.03914466565  0.006634390752   -0.2323783722          0.0145    0.3927815007   -0.9638660974     2.434312342 
      2    2  -0.07082330966   0.02195019011   -0.2233051223          0.0145   0.09617918844  0.008085083914  -0.02596167264 
  -0.03 -0.03  -0.03678620811   0.02384613423   -0.2315074527          0.0145  -0.07422853352   -0.3436606457     2.518776669 
      3    3 -0.002926292055   0.02904766188   -0.2335780933          0.0145    -1.841141815     0.904628857   -0.4705106663 
   -0.5 -0.5   0.03596586892   0.03603170969   -0.2300220211          0.0145     1.455075257      1.51314824     2.691525004 
      3    3   0.07601385586   0.03317933871   -0.2208554442          0.0145    0.2116442427    -4.783406331     4.434970213 
      4    4  -0.03450330693    0.0533092257   -0.2263752986          0.0145     0.945089317    0.2172440203    0.7740310661 
    0.8  0.8 -0.004991407894   0.05696446484    -0.226873074          0.0145   0.01824221881   -0.3286942868   -0.3585965019 
   -0.4 -0.4   0.02450875032    0.0621167376   -0.2249898087          0.0145    0.0183904436  -0.05659164411   -0.3226783427 
   -0.3 -0.3   0.01819021245  -0.08965696511   -0.2156848673          0.0145  -0.04538966753    0.1214679374  -0.05708611454 
  -0.06 -0.06  -0.07260620946  -0.07109394101   -0.2111506096          0.0145   0.06771859683    0.1083028399  -0.04768156559 
  -0.05 -0.05  -0.01781919543  -0.04359366082   -0.2076770572          0.0145               0               0   -0.3131854894 
   -0.3 -0.3  -0.06760181612   -0.0245316391    -0.212842906          0.0145               0               0   -0.3131854894 
   -0.3 -0.3   0.06709774548  -0.02275288353   -0.2162552494          0.0145               0               0   -0.3131854894 
   -0.3 -0.3   0.09231340145  0.009082641033   -0.2152088947          0.0145   -0.2173040148 -0.003258019866   0.08879685633 
   0.09 0.09  -0.09946685269   0.02267141959    -0.211011682          0.0145   0.08291036207  0.005650459291   -0.1410827428 
   -0.1 -0.1   -0.0176137761    0.0188434096   -0.2110555469          0.0145     1.569244911   0.03800921802     1.214936275 
      1    1   0.01804359645   0.01850724375   -0.2175638519          0.0145   -0.6019563779    -1.247304252   -0.4566902751 
   -0.5 -0.5   0.05334088356   0.04625637452   -0.2099516378          0.0145    -2.398738167     2.630076508     3.116884323 
      3    3  -0.07363116964   0.06808438893   -0.2117730562          0.0145   0.09045422432   -0.1075280985  -0.06194226175 
  -0.06 -0.06  0.004115448654     0.083472409   -0.2193825277          0.0145 0.0002059439816   0.01332976184   -0.3517757494 
   -0.4 -0.4   0.04120383839   0.08253456545   -0.2129265338          0.0145               0               0   -0.3131854894 
   -0.3 -0.3   0.04128875453   -0.1093301101   -0.2026145193          0.0145               0               0   -0.3131854894 
   -0.3 -0.3  -0.04505489283  -0.06654009643   -0.1941704106          0.0145    -7.364344824    -20.03824522    -34.26820305 
 -3e+01 -3e+01   -0.1061675985  -0.05768946447   -0.2004237959          0.0145    0.1699930077    0.1059176808  -0.06059629169 
  -0.06 -0.06   0.02853478316  -0.03816693561   -0.2037376447          0.0145               0               0   -0.3131854894 
   -0.3 -0.3  -0.03655966336  -0.02166328906   -0.2046362222          0.0145    0.2225362027    0.3595130142    0.1320549833 
    0.1  0.1   0.03590871702 -0.0001973913055   -0.2030137504          0.0145               0               0   -0.3131854894 
   -0.3 -0.3  0.004222580228  0.008669777277   -0.1952705317          0.0145    -4.191936139    -3.517737387     7.711165398 
      8    8   0.06286461813   0.01391108584   -0.2050379061          0.0145    0.7445257595     1.146837179    -1.056856161 
     -1   -1  -0.02503903714   0.05070105243   -0.1994412354          0.0145   -0.9735666026   0.08572897024     -2.48670414 
     -2   -2   0.09943805721   0.06230879071   -0.2029874327          0.0145   -0.1303447419  -0.09235178849  -0.09826833853 
   -0.1 -0.1   0.03837563274   0.05102627731   -0.1858871375          0.0145   -0.4904342823    0.2389355168    0.6562549983 
    0.7  0.7  -0.03844462092  -0.05076549597   -0.1720248632          0.0145     7.364344824     20.03824522     33.64183207 
  3e+01 3e+01   0.01636262775  -0.01973308922   -0.1705184184          0.0145               0               0   -0.3131854894 
   -0.3 -0.3  -0.04012284138   0.01603525062     -0.14780667          0.0145               0               0   -0.3131854894 
   -0.3 -0.3  -0.01579457463    0.0389730209   -0.1435181574          0.0145               0               0   -0.3131854894 
   -0.3 -0.3 -0.007394430384  -0.01225288988   -0.1032789799          0.0145               0               0   -0.3131854894 
   -0.3 -0.3   0.04738946471  -0.01243160137    -0.112664925          0.0145               0               0   -0.3131854894 
   -0.3 -0.3  0.004674379245  -0.03672349038  -0.08597904714          0.0145               0               0   -0.3131854894 
   -0.3 -0.3  -0.06897829925   0.02816516455  -0.07732903397          0.0145               0               0   -0.3131854894 
   -0.3 -0.3  -0.04187413857   0.06867082377  -0.03085101954          0.0145               0               0   -0.3131854894 
   -0.3 -0.3   0.02543525546  -0.05203148601  -0.01370683552          0.0145               0               0   -0.3131854894 
   -0.3 -0.3   0.07080117761  0.004115623273  0.005060069848          0.0145               0               0   -0.3131854894 
   -0.3 -0.3   0.01976008182   0.04740064702  0.004249004045          0.0145               0               0   -0.3131854894 
   -0.3 -0.3   0.03180044947 -0.005480089072   0.09108170214          0.0145               0               0   -0.3131854894 
   -0.3 -0.3   0.06875937171 -0.000884953737   0.09917613023          0.0145               0               0   -0.3131854894 
   -0.3 -0.3   -0.0610159485  -0.03650141165    0.1114671788          0.0145               0               0   -0.3131854894 
   -0.3 -0.3   0.02827190567  -0.04235485566    0.1269972619          0.0145               0               0   -0.3131854894 
   -0.3 -0.3  0.003584827849   0.05571923243    0.1274674436          0.0145               0               0   -0.3131854894 
   -0.3 -0.3  -0.02173214206   0.02586670405    0.1582005398          0.0145               0               0   -0.3131854894 
   -0.3 -0.3 -0.005448398554  -0.06065050887     0.166270171          0.0145               0               0   -0.3131854894 
   -0.3 -0.3   0.04447009115   0.01225175354    0.1619950123          0.0145               0               0   -0.3131854894 
   -0.3 -0.3   0.04671524253   0.04481644235    0.1738791303          0.0145               0               0   -0.3131854894 
   -0.3 -0.3  -0.03852044639   0.00266468124    0.1802411735          0.0145               0               0   -0.3131854894 
   -0.3 -0.3   0.02179337575  -0.05955289884     0.204023483          0.0145               0               0   -0.3131854894 
   -0.3 -0.3  -0.04953479941  -0.04179730663    0.1955212278          0.0145               0               0   -0.3131854894 
   -0.3 -0.3 -0.0009613373777   -0.0316570511    0.2118864966          0.0145               0               0   -0.3131854894 
   -0.3 -0.3 -0.007659659204   0.06489443448     0.207195112          0.0145               0               0   -0.3131854894 
   -0.3 -0.3    0.0301365256  0.006769378085    0.2343254583          0.0145               0               0   -0.3131854894 
   -0.3 -0.3   0.05056887139   -0.0501739172    0.2659061739          0.0145               0               0   -0.3131854894 
   -0.3 -0.3   0.02940131498   0.04807687098    0.2752169036          0.0145               0               0   -0.3131854894 
   -0.3 -0.3  0.008525633856  -0.06892022226    0.2807557096          0.0145               0               0   -0.3131854894 
ITEM: TIMESTEP
60000
ITEM: NUMBER OF ATOMS
108
ITEM: BOX BOUNDS ff ff ff
-0.5 0.5
-0.5 0.5
-0.5 0.5
ITEM: ATOMS id type x y z radius fx fy fz 
 7e-310 7e-310  -0.04746049362  -0.04603358353   -0.2241782697          0.0145    -9.849652485    0.5913381514    -14.02733318 
 -1e+01 -1e+01  -0.01929612751  -0.04550421026   -0.2297068562          0.0145     5.012954874     1.971317583    -14.97089575 
 -1e+01 -1e+01   0.00891484303  -0.05066974744   -0.2289438919          0.0145    0.8112325655   0.07022171668  0.005441510942 
  0.005 0.005   0.03205479566  -0.03338622407   -0.2303784302          0.0145     0.371608727   -0.1532315601    0.9236813108 
    0.9  0.9  -0.05947568269  -0.01589728571   -0.2264219996          0.0145   0.06217944306  0.003945384887  -0.01310199733 
  -0.01 -0.01  -0.03082182223  -0.01768608855   -0.2330254566          0.0145  -0.02466417536    0.6533420323     2.316204888 
      2    2 -5.829818646e-05  -0.02263064584   -0.2338657968          0.0145    0.9682111142    0.1912818468    0.8836791539 
    0.9  0.9   0.07037976103  -0.01860729503   -0.2223565859          0.0145               0               0   -0.3131854894 
   -0.3 -0.3   0.02892831129 -0.004548305382   -0.2331431773          0.0145   -0.3656314262    -2.689221837    -1.105364842 
     -1   -1  -0.06712063362   0.01327689914   -0.2245936429          0.0145    0.1079867875 -0.009786779509  -0.01497952967 
  -0.01 -0.01  -0.03843976188   0.01226054932   -0.2322922654          0.0145    -3.320822566   -0.9275827368    -2.138264975 
     -2   -2  -0.01109607696  0.004092293354   -0.2348383934          0.0145    -2.792136422    -4.897737772    -6.300527828 
     -6   -6   0.07204165228   0.01124576565   -0.2235541975          0.0145   -0.3933134627   -0.1737628955    0.9855758181 
      1    1   0.01146639805   0.02234120787   -0.2334044609          0.0145    0.1130300285    -2.895229605   -0.5404928366 
   -0.5 -0.5   0.04063456453   0.02149805626   -0.2303161129          0.0145     1.193820046     3.388656248    0.1807941036 
    0.2  0.2  -0.04947026847   0.03800362996   -0.2263841428          0.0145    -1.931513116    -2.129045883    -1.900465877 
     -2   -2  -0.01412881765   0.04108028423   -0.2313337802          0.0145    0.3099579365    0.3831736964    0.2209735523 
    0.2  0.2    0.0127067386   0.05066343839    -0.229429561          0.0145   -0.8244260585     1.941745286     1.757183932 
      2    2   0.04737424871   0.04962562123   -0.2250666743          0.0145    -5.209985373    -2.495225455     18.82998662 
  2e+01 2e+01 -0.002792379383   0.07890050702   -0.2214716752          0.0145    0.0466943752   -0.1097183682  -0.04654949087 
  -0.05 -0.05  0.003955885296     -0.11193733    -0.206796209          0.0145     1.206699197    -0.218176085    0.3287832159 
    0.3  0.3  -0.02256777695   -0.1012392535   -0.2103042663          0.0145    -1.076141185    0.7114462254   -0.2464674454 
   -0.2 -0.2    0.0286269035  -0.09775289246   -0.2114219839          0.0145   -0.1865610235    0.0475520492   0.02892995388 
   0.03 0.03  -0.07459248646  -0.07571086123   -0.2093091869          0.0145    -1.121426557    -0.739921171    0.3562282125 
    0.4  0.4  -0.02935479007  -0.07451997052   -0.2203158916          0.0145               0               0   -0.3131854894 
   -0.3 -0.3  0.002002731655  -0.07975388287   -0.2153650516          0.0145               0               0   -0.3131854894 
   -0.3 -0.3   0.06381797232  -0.07005068528   -0.2141094147          0.0145   -0.2895971878    -0.333900697   -0.2871579563 
   -0.3 -0.3    -0.079081794  -0.04578476111   -0.2089729369          0.0145               0               0   -0.3131854894 
   -0.3 -0.3   0.02956593897  -0.05560510366   -0.2090937802          0.0145    0.7545150035    0.6606387446    -0.280012259 
   -0.3 -0.3   0.08055844185  -0.04651672047   -0.2150416769          0.0145    0.2708948982    0.3382073105   -0.2964200823 
   -0.3 -0.3   0.05156574204  -0.03686680243   -0.2082195941          0.0145   -0.7545150035   -0.6606387446   -0.3463587199 
   -0.3 -0.3  -0.08673018851  -0.01863429475   -0.2169232701          0.0145   0.06945623177   0.02321865148  -0.06706678317 
  -0.07 -0.07 -0.008907776262  -0.02563692111    -0.207001002          0.0145    -2.952762972   -0.4394705647     2.752456028 
      3    3   0.01844448315  -0.01840096986   -0.2100042925          0.0145     2.001144509    0.9795570239     1.223684393 
      1    1   0.09767788465  -0.02310397382   -0.2120770422          0.0145     -1.03175632     0.751991934     1.164199026 
      1    1  -0.03383501806 -0.002935482166   -0.2086286691          0.0145   0.08778417751   -0.7052140365   -0.4207758129 
   -0.4 -0.4  0.001815128008  0.005424566299   -0.2105878796          0.0145     4.649431293    0.3403362123       8.8864431 
      9    9   0.04191122907 0.0008646477044   -0.2078485967          0.0145   -0.1648600979  -0.04235276494   -0.5761035735 
   -0.6 -0.6   -0.1010516173   0.02604549184    -0.210137423          0.0145   -0.0766738873   -0.1730699686  -0.03198556142 
  -0.03 -0.03  -0.02080999634   0.02289890071   -0.2103657016          0.0145    -2.215681396    0.6089876773    0.3874742472 
    0.4  0.4    0.1090022622   0.02863760795   -0.2061269145          0.0145   -0.1233662189   -0.0106727835  -0.08187893519 
  -0.08 -0.08  -0.07694619189   0.04021178762   -0.2177315952          0.0145    -0.481210283   -0.2184777376   0.06673703473 
   0.07 0.07   0.08245405636   0.03929322454   -0.2157237534          0.0145   -0.1054930792  -0.04671083421   -0.0610366072 
  -0.06 -0.06  -0.03667973328    0.0566646587   -0.2088813096          0.0145     18.86784976     4.222818735     -38.4280574 
 -4e+01 -4e+01  -0.06301155757   0.06544452423   -0.2161106263          0.0145    0.2412871129  -0.01874045907     1.267128011 
      1    1   0.06941077557   0.06539511581   -0.2139963804          0.0145   -0.2001727975   -0.1794574632    0.1623257878 
    0.2  0.2    0.0332216011   0.07945962545   -0.2181235701          0.0145    0.6609304563   -0.1369724531    -2.246803734 
     -2   -2   0.01570940556    0.1010487314   -0.2108502765          0.0145   -0.4710990632    0.5572777314    0.1346146734 
    0.1  0.1   0.05992104212   0.09212988605   -0.2077392903          0.0145   -0.0284027067  -0.09331269072    -0.042998694 
  -0.04 -0.04   0.02942658225   -0.1248871085   -0.1956670672          0.0145  -0.01644672723    0.1640869648   -0.1085129687 
   -0.1 -0.1  -0.04515121318    -0.116652438    -0.197993075          0.0145   0.07439428756    0.1061828416   -0.0849363393 
  -0.08 -0.08   0.06030003681  -0.09743566901   -0.2047706312          0.0145  -0.09053603642     0.131902119   -0.1026276774 
   -0.1 -0.1   0.09619855545  -0.07442972541     -0.20049608          0.0145   -0.1048260151    0.1248901969   -0.1073912801 
   -0.1 -0.1   -0.1012369677  -0.07303316559   -0.1987297578          0.0145   -0.7042846257   0.04037281064    0.4333107681 
    0.4  0.4    -0.050482159  -0.06330050127   -0.2003952168          0.0145   -0.3391864121   -0.7872526593     0.379081904 
    0.4  0.4  -0.02799213515  -0.04615175722   -0.2032754338          0.0145     5.959520514    0.2746439763     36.07141915 
  4e+01 4e+01   -0.1094312941  -0.04205557211   -0.2031762117          0.0145    0.1091229708   0.04800324102  -0.08916356325 
  -0.09 -0.09  -0.05055092413  -0.02845594778    -0.199045499          0.0145    0.8260302409   -0.6918223034   -0.5780740343 
   -0.6 -0.6   -0.1127971092  -0.01325410884   -0.2052380342          0.0145     0.122551731  0.007412539752  -0.08736044407 
  -0.09 -0.09    -0.085379962 -0.001094020426   -0.1938723134          0.0145  0.001905819643  0.008240054654   -0.3009770095 
   -0.3 -0.3 -0.008438722507   0.05347442631   -0.2049803334          0.0145     3.321758834   -0.1800379218   -0.1287271626 
   -0.1 -0.1    0.0213863022   0.05744550317   -0.2033724682          0.0145    0.8200664023    0.4504865263     2.361470942 
      2    2  -0.09037929362   0.07314432961   -0.2038184472          0.0145    0.1246129342  -0.09619474167   -0.1066065145 
   -0.1 -0.1    0.1010359302   0.06417516501   -0.2014852953          0.0145    -0.153389601  -0.05698765263   -0.1015175393 
   -0.1 -0.1  -0.06232605415    0.1015191823   -0.2017549046          0.0145   0.09056923278   -0.1319651074   -0.1025460443 
   -0.1 -0.1  -0.02059010069   0.09993913997   -0.1944983718          0.0145               0               0   -0.3131854894 
   -0.3 -0.3   0.04053767226    0.1128155524   -0.2016398583          0.0145  -0.02452447373   -0.1079137307  -0.07452813575 
  -0.07 -0.07  -0.02700804917    0.1282388467   -0.1937266984          0.0145   0.02324113239   -0.1448348746   -0.1012351839 
   -0.1 -0.1  0.002110981983    -0.137185952    -0.190458428          0.0145  -0.00697412376     0.125666148  -0.08254725827 
  -0.08 -0.08   0.05942917367    -0.135527147   -0.1812104174          0.0145  -0.05906443882    0.1268551097   -0.1303417038 
   -0.1 -0.1   0.03043638893  -0.03981156974   -0.1818552195          0.0145               0               0   -0.3131854894 
   -0.3 -0.3      0.09111647   -0.0388719567   -0.1890690834          0.0145   -0.4602220492   -0.7621287555     1.023918939 
      1    1   0.06248528733  -0.02446362587   -0.1836284359          0.0145               0               0   -0.3131854894 
   -0.3 -0.3   0.01674828579   0.01143093087   -0.1888937769          0.0145     10.26640023     3.024221987     16.97223114 
  2e+01 2e+01  -0.05012120893   0.05614347134   -0.1853098547          0.0145    -18.96432496   -0.3766022447     42.24499991 
  4e+01 4e+01  -0.05402398324    0.1338662274   -0.1848778439          0.0145   0.02457589915   -0.1356910451   -0.1239025169 
   -0.1 -0.1   -0.0241574657  -0.04685422045    -0.175414541          0.0145     0.090714372     -0.13502197     1.493052784 
      1    1  0.005607107463  -0.02048662414   -0.1739878237          0.0145               0               0   -0.3131854894 
   -0.3 -0.3   0.01179684507   0.05791164996   -0.1763855133          0.0145  -0.03289918169  0.003212578619   -0.1798955928 
   -0.2 -0.2  -0.01855788801   0.02773385377   -0.1423063878          0.0145               0               0   -0.3131854894 
   -0.3 -0.3   0.03719118198   0.05637578986  -0.09414358581          0.0145               0               0   -0.3131854894 
   -0.3 -0.3   0.04946259355  -0.04697634976  -0.08495560124          0.0145               0               0   -0.3131854894 
   -0.3 -0.3  -0.02392031715  -0.01138304451  -0.07392927567          0.0145               0               0   -0.3131854894 
   -0.3 -0.3  -0.01055076129  -0.03707326659  -0.05707713235          0.0145               0               0   -0.3131854894 
   -0.3 -0.3  -0.05789190673  -0.02116678719  -0.03967378366          0.0145               0               0   -0.3131854894 
   -0.3 -0.3 -0.006521418504  -0.07038403953    0.0146071469          0.0145               0               0   -0.3131854894 
   -0.3 -0.3    0.0758408547     0.023766951 0.0007251890159          0.0145               0               0   -0.3131854894 
   -0.3 -0.3  -0.01658220611  -0.03065433919   0.01829474991          0.0145               0               0   -0.3131854894 
   -0.3 -0.3   0.03544767853   0.01521665971   0.02557882124          0.0145               0               0   -0.3131854894 
   -0.3 -0.3   0.01720474959   0.05383460163   0.02324346288          0.0145               0               0   -0.3131854894 
   -0.3 -0.3 -0.004821178911   0.01507443307    0.0854360312          0.0145               0               0   -0.3131854894 
   -0.3 -0.3   0.02488028504  -0.02796680777    0.1132264404          0.0145               0               0   -0.3131854894 
   -0.3 -0.3  -0.01998328605   0.04379397507    0.1256529751          0.0145               0               0   -0.3131854894 
   -0.3 -0.3    0.0218579445   0.03173165704    0.1221683666          0.0145               0               0   -0.3131854894 
   -0.3 -0.3  -0.06565003166   -0.0117940625    0.1468536738          0.0145               0               0   -0.3131854894 
   -0.3 -0.3   0.03425097831  0.009657043935    0.1608424726          0.0145               0               0   -0.3131854894 
   -0.3 -0.3  -0.01198376277   0.06094117514    0.1700760869          0.0145               0               0   -0.3131854894 
   -0.3 -0.3  -0.04529648816   0.06145889532    0.1802129088          0.0145               0               0   -0.3131854894 
   -0.3 -0.3    0.0262015343 -0.009713444377    0.2049678682          0.0145               0               0   -0.3131854894 
   -0.3 -0.3   0.06327966833   0.02944511754     0.193207693          0.0145               0               0   -0.3131854894 
   -0.3 -0.3   0.02928182347   -0.0316403394    0.2282523004          0.0145               0               0   -0.3131854894 
   -0.3 -0.3  -0.04102731785  0.008349121039    0.2215650489          0.0145               0               0   -0.3131854894 
   -0.3 -0.3  -0.03019981723   0.03634507928    0.2218940638          0.0145               0               0   -0.3131854894 
   -0.3 -0.3  -0.02684881566  -0.02787426148    0.2423914329          0.0145               0               0   -0.3131854894 
   -0.3 -0.3   0.05414627512   0.01414504366    0.2365402942          0.0145               0               0   -0.3131854894 
   -0.3 -0.3  -0.07146146685   0.01421687532    0.2641357742          0.0145               0               0   -0.3131854894 
   -0.3 -0.3   0.01200548005  -0.02385757268    0.2673721427          0.0145               0               0   -0.3131854894 
   -0.3 -0.3  -0.01153519645  -0.03612039253    0.2800972731          0.0145               0               0   -0.3131854894 
ITEM: TIMESTEP
80000
ITEM: NUMBER OF ATOMS
144
ITEM: BOX BOUNDS ff ff ff
-0.5 0.5
-0.5 0.5
-0.5 0.5
ITEM: ATOMS id type x y z radius fx fy fz 
 7e-310 7e-310  -0.04296851257  -0.06221322343   -0.2229135734          0.0145 -0.007049352557   -0.0851011149    0.1386332729 
    0.1  0.1  -0.01412179991  -0.07128129395   -0.2239638205          0.0145      1.02871915     2.107457228     3.026601292 
      3    3   0.02795580681   -0.0505577061   -0.2276642522          0.0145   -0.9289117622   -0.8720495986 -0.003382905673 
 -0.003 -0.003  -0.05221067418  -0.03330816349   -0.2263431578          0.0145  -0.01255171131   -0.4764511631   -0.7871624203 
   -0.8 -0.8  -0.02296768883  -0.03762631794   -0.2311469097          0.0145   -0.2952691438   0.06646299416      1.06631026 
      1    1  0.005456763738  -0.03336911703   -0.2328150576          0.0145     0.141990753    0.6049253873      1.13698389 
      1    1   0.06166787269  -0.04221277499   -0.2231398558          0.0145   -0.0406769038    0.1215003255  -0.03910143284 
  -0.04 -0.04   0.03385767002  -0.01938219376   -0.2322552953          0.0145  -0.05984128129   -0.7524156383    0.3118174333 
    0.3  0.3  0.009405603162 -0.004702885328   -0.2348604109          0.0145   0.05718190464     1.448821536    0.9090936681 
    0.9  0.9  -0.08003075265  0.006992034612   -0.2207359524          0.0145    0.2317235365    -1.091412773    -1.157057307 
     -1   -1  -0.04817373055  0.004949629902   -0.2302024798          0.0145     0.418187193   -0.6735515588    0.5886229011 
    0.6  0.6  -0.01809707444  0.003146606927   -0.2343657347          0.0145   -0.3388674357    0.4543183734    0.4242658914 
    0.4  0.4   0.03276410953   0.01211886605   -0.2327479641          0.0145  -0.09701175573    -2.249751162     8.669306035 
      9    9   0.07920895223    0.0105971148   -0.2208977014          0.0145    0.9988021961     1.435989746    0.1659450887 
    0.2  0.2 -0.002781390831   0.02794791966    -0.233342153          0.0145   0.08126403405    0.6081419195    0.6374547177 
    0.6  0.6   0.05624180891   0.02755457349   -0.2258750354          0.0145  -0.06314371957    -0.121217817   -0.3550211803 