ITEM: TIMESTEP
3912000
ITEM: NUMBER OF ATOMS
1053
ITEM: BOX BOUNDS ff ff ff
0.0000000000000000e+00 5.0000000000000000e+00
0.0000000000000000e+00 5.0000000000000000e+00
0.0000000000000000e+00 3.0156250000000000e+01
ITEM: ATOMS id type x y z radius fx fy fz
     19     1    1.562500000000    0.312500000000    0.186688882147    0.200000000000  -2.844771501502e-14   2.842418057924e-14   2.364273490766e-01
    162     1    0.937500000000    0.625000000000    0.186688882147    0.200000000000  -3.910847600382e-18  -4.437246341266e-18   2.364273490173e-01
     78     1    4.531250000000    0.781250000000    0.186688882147    0.200000000000   1.179928006345e-16  -2.845204251671e-14   2.364273490709e-01
    131     1    2.031250000000    0.937500000000    0.186688882147    0.200000000000  -8.514306484730e-18   2.839486431145e-14   2.364273490709e-01
     82     1    3.281250000000    0.937500000000    0.186688882147    0.200000000000  -2.843235371377e-14  -1.634701670705e-16   2.364273490709e-01
     64     1    4.062500000000    1.093750000000    0.186688882147    0.200000000000   1.285937731690e-17   2.849102820334e-14   2.364273490173e-01
    160     1    0.468750000000    1.406250000000    0.186688882147    0.200000000000   6.794628141347e-18  -1.140927226105e-17   2.364273490766e-01
    142     1    0.781250000000    1.718750000000    0.186688882147    0.200000000000   2.840879035155e-14   5.692874782830e-14   2.364273490766e-01
     51     1    1.250000000000    1.562500000000    0.186688882147    0.200000000000  -2.655615988190e-17   5.689560741432e-14   2.364273490762e-01
     33     1    3.281250000000    1.718750000000    0.186688882147    0.200000000000   9.754953259854e-17   1.517422394200e-19   2.364273490821e-01
     31     1    3.750000000000    2.031250000000    0.186688882147    0.200000000000   5.686665947557e-14  -2.842687132046e-14   2.364273490766e-01
    216     1    0.468750000000    2.343750000000    0.186688882147    0.200000000000   1.351295708061e-16  -5.363719374844e-17   2.364273490223e-01
     85     1    1.250000000000    2.343750000000    0.186688882147    0.200000000000   2.274082375048e-16  -7.604804919098e-17   2.364273490173e-01
     20     1    2.812500000000    2.343750000000    0.186688882147    0.200000000000   2.840687516805e-14  -6.805689758263e-17   2.364273490766e-01
    186     1    4.375000000000    2.343750000000    0.186688882147    0.200000000000   2.841343610385e-14   1.613059553436e-17   2.364273490766e-01
     35     1    0.194791424690    2.968750000000    0.181909717124    0.200000000000   8.406836807774e-02  -1.756688146136e-16   5.441550071114e-01
    190     1    1.875000000000    2.812500000000    0.186688882147    0.200000000000   1.354112173780e-17   1.104335769324e-17   2.364273490227e-01
     18     1    2.500000000000    2.968750000000    0.186688882147    0.200000000000  -5.440796908833e-18  -2.837105683186e-14   2.364273490709e-01
    191     1    2.968750000000    2.968750000000    0.186688882147    0.200000000000  -2.844684057724e-14   2.841976111122e-14   2.364273490766e-01
     57     1    3.593750000000    2.812500000000    0.186688882147    0.200000000000   2.839147004710e-14   2.844889901505e-14   2.364273490821e-01
    210     1    2.187500000000    3.281250000000    0.186688882147    0.200000000000  -3.425305134388e-17   1.582073796004e-17   2.364273490223e-01
    192     1    4.062500000000    3.593750000000    0.186688882147    0.200000000000   2.836200147524e-14   2.840485015397e-14   2.364273490821e-01
     62     1    4.687500000000    3.593750000000    0.186688882147    0.200000000000   5.918525021068e-17  -5.505848620624e-17   2.364273490764e-01
    139     1    0.781250000000    3.750000000000    0.186688882147    0.200000000000   2.838684916499e-14   2.842934756276e-14   2.364273490709e-01
    222     1    1.875000000000    3.906250000000    0.186688882147    0.200000000000  -8.379541753954e-18   1.806671057843e-18   2.364273490223e-01
    195     1    0.312500000000    4.218750000000    0.186688882147    0.200000000000  -3.070097345515e-16   2.358440515107e-16   2.364273491360e-01
    100     1    2.500000000000    4.218750000000    0.186688882147    0.200000000000  -1.264069290747e-17   1.416774322630e-17   2.364273490173e-01
    209     1    4.805208607496    4.062500000000    0.181909715164    0.200000000000  -8.406828437548e-02   8.122180905614e-19   5.441540274646e-01
     84     1    3.281250000000    4.375000000000    0.186688882147    0.200000000000  -2.680827464411e-17   2.416256837703e-17   2.364273490709e-01
  46138     3    0.078125000000    0.078125000000    0.438125000000    0.078125000000   0.000000000000e+00   0.000000000000e+00   0.000000000000e+00
  46171     3    0.234375000000    0.234375000000    0.438125000000    0.078125000000   0.000000000000e+00   0.000000000000e+00   0.000000000000e+00
  46170     3    0.078125000000    0.234375000000    0.438125000000    0.078125000000   0.000000000000e+00   0.000000000000e+00   0.000000000000e+00
  46139     3    0.234375000000    0.078125000000    0.438125000000    0.078125000000   0.000000000000e+00   0.000000000000e+00   0.000000000000e+00
  46140     3    0.390625000000    0.078125000000    0.438125000000    0.078125000000   0.000000000000e+00   0.000000000000e+00   0.000000000000e+00
  46173     3    0.546875000000    0.234375000000    0.438125000000    0.078125000000   0.000000000000e+00   0.000000000000e+00   0.000000000000e+00
  46172     3    0.390625000000    0.234375000000    0.438125000000    0.078125000000   0.000000000000e+00   0.000000000000e+00   0.000000000000e+00
  46141     3    0.546875000000    0.078125000000    0.438125000000    0.078125000000   0.000000000000e+00   0.000000000000e+00   0.000000000000e+00
  46174     3    0.703125000000    0.234375000000    0.438125000000    0.078125000000   0.000000000000e+00   0.000000000000e+00   0.000000000000e+00
  46175     3    0.859375000000    0.234375000000    0.438125000000    0.078125000000   0.000000000000e+00   0.000000000000e+00   0.000000000000e+00
  46143     3    0.859375000000    0.078125000000    0.438125000000    0.078125000000   0.000000000000e+00   0.000000000000e+00   0.000000000000e+00
  46142     3    0.703125000000    0.078125000000    0.438125000000    0.078125000000   0.000000000000e+00   0.000000000000e+00   0.000000000000e+00
  46144     3    1.015625000000    0.078125000000    0.438125000000    0.078125000000   0.000000000000e+00   0.000000000000e+00   0.000000000000e+00
  46145     3    1.171875000000    0.078125000000    0.438125000000    0.078125000000   0.000000000000e+00   0.000000000000e+00   0.000000000000e+00
  46177     3    1.171875000000    0.234375000000    0.438125000000    0.078125000000   0.000000000000e+00   0.000000000000e+00   0.000000000000e+00
  46176     3    1.015625000000    0.234375000000    0.438125000000    0.078125000000   0.000000000000e+00   0.000000000000e+00   0.000000000000e+00
  46147     3    1.484375000000    0.078125000000    0.438125000000    0.078125000000   0.000000000000e+00   0.000000000000e+00   0.000000000000e+00
  46178     3    1.328125000000    0.234375000000    0.438125000000    0.078125000000   0.000000000000e+00   0.000000000000e+00   0.000000000000e+00
  46179     3    1.484375000000    0.234375000000    0.438125000000    0.078125000000  -1.386931496117e+02  -1.386931496117e+02   4.463675790241e+02
  46146     3    1.328125000000    0.078125000000    0.438125000000    0.078125000000   0.000000000000e+00   0.000000000000e+00   0.000000000000e+00
  46180     3    1.640625000000    0.234375000000    0.438125000000    0.078125000000   1.386931496117e+02  -1.386931496117e+02   4.463675790241e+02
  46149     3    1.796875000000    0.078125000000    0.438125000000    0.078125000000   0.000000000000e+00   0.000000000000e+00   0.000000000000e+00
  46148     3    1.640625000000    0.078125000000    0.438125000000    0.078125000000   0.000000000000e+00   0.000000000000e+00   0.000000000000e+00
  46181     3    1.796875000000    0.234375000000    0.438125000000    0.078125000000   0.000000000000e+00   0.000000000000e+00   0.000000000000e+00
  46150     3    1.953125000000    0.078125000000    0.438125000000    0.078125000000   0.000000000000e+00   0.000000000000e+00   0.000000000000e+00
  46183     3    2.109375000000    0.234375000000    0.438125000000    0.078125000000   0.000000000000e+00   0.000000000000e+00   0.000000000000e+00
  46182     3    1.953125000000    0.234375000000    0.438125000000    0.078125000000   0.000000000000e+00   0.000000000000e+00   0.000000000000e+00
  46151     3    2.109375000000    0.078125000000    0.438125000000    0.078125000000   0.000000000000e+00   0.000000000000e+00   0.000000000000e+00
  46184     3    2.265625000000    0.234375000000    0.438125000000    0.078125000000   0.000000000000e+00   0.000000000000e+00   0.000000000000e+00
  46152     3    2.265625000000    0.078125000000    0.438125000000    0.078125000000   0.000000000000e+00   0.000000000000e+00   0.000000000000e+00
  46185     3    2.421875000000    0.234375000000    0.438125000000    0.078125000000   0.000000000000e+00   0.000000000000e+00   0.000000000000e+00
  46153     3    2.421875000000    0.078125000000    0.438125000000    0.078125000000   0.000000000000e+00   0.000000000000e+00   0.000000000000e+00
  46154     3    2.578125000000    0.078125000000    0.438125000000    0.078125000000   0.000000000000e+00   0.000000000000e+00   0.000000000000e+00
  46155     3    2.734375000000    0.078125000000    0.438125000000    0.078125000000   0.000000000000e+00   0.000000000000e+00   0.000000000000e+00
  46187     3    2.734375000000    0.234375000000    0.438125000000    0.078125000000   0.000000000000e+00   0.000000000000e+00   0.000000000000e+00
  46186     3    2.578125000000    0.234375000000    0.438125000000    0.078125000000   0.000000000000e+00   0.000000000000e+00   0.000000000000e+00
  46156     3    2.890625000000    0.078125000000    0.438125000000    0.078125000000   0.000000000000e+00   0.000000000000e+00   0.000000000000e+00
  46188     3    2.890625000000    0.234375000000    0.438125000000    0.078125000000   0.000000000000e+00   0.000000000000e+00   0.000000000000e+00
  46157     3    3.046875000000    0.078125000000    0.438125000000    0.078125000000   0.000000000000e+00   0.000000000000e+00   0.000000000000e+00
  46189     3    3.046875000000    0.234375000000    0.438125000000    0.078125000000   0.000000000000e+00   0.000000000000e+00   0.000000000000e+00
  46158     3    3.203125000000    0.078125000000    0.438125000000    0.078125000000   0.000000000000e+00   0.000000000000e+00   0.000000000000e+00
  46159     3    3.359375000000    0.078125000000    0.438125000000    0.078125000000   0.000000000000e+00   0.000000000000e+00   0.000000000000e+00
  46190     3    3.203125000000    0.234375000000    0.438125000000    0.078125000000   0.000000000000e+00   0.000000000000e+00   0.000000000000e+00
  46191     3    3.359375000000    0.234375000000    0.438125000000    0.078125000000   0.000000000000e+00   0.000000000000e+00   0.000000000000e+00
  46161     3    3.671875000000    0.078125000000    0.438125000000    0.078125000000   0.000000000000e+00   0.000000000000e+00   0.000000000000e+00
  46192     3    3.515625000000    0.234375000000    0.438125000000    0.078125000000   0.000000000000e+00   0.000000000000e+00   0.000000000000e+00
  46193     3    3.671875000000    0.234375000000    0.438125000000    0.078125000000   0.000000000000e+00   0.000000000000e+00   0.000000000000e+00
  46160     3    3.515625000000    0.078125000000    0.438125000000    0.078125000000   0.000000000000e+00   0.000000000000e+00   0.000000000000e+00
  46163     3    3.984375000000    0.078125000000    0.438125000000    0.078125000000   0.000000000000e+00   0.000000000000e+00   0.000000000000e+00
  46194     3    3.828125000000    0.234375000000    0.438125000000    0.078125000000   0.000000000000e+00   0.000000000000e+00   0.000000000000e+00
  46195     3    3.984375000000    0.234375000000    0.438125000000    0.078125000000   0.000000000000e+00   0.000000000000e+00   0.000000000000e+00
  46162     3    3.828125000000    0.078125000000    0.438125000000    0.078125000000   0.000000000000e+00   0.000000000000e+00   0.000000000000e+00
  46164     3    4.140625000000    0.078125000000    0.438125000000    0.078125000000   0.000000000000e+00   0.000000000000e+00   0.000000000000e+00
  46165     3    4.296875000000    0.078125000000    0.438125000000    0.078125000000   0.000000000000e+00   0.000000000000e+00   0.000000000000e+00
  46196     3    4.140625000000    0.234375000000    0.438125000000    0.078125000000   0.000000000000e+00   0.000000000000e+00   0.000000000000e+00
  46197     3    4.296875000000    0.234375000000    0.438125000000    0.078125000000   0.000000000000e+00   0.000000000000e+00   0.000000000000e+00
  46166     3    4.453125000000    0.078125000000    0.438125000000    0.078125000000   0.000000000000e+00   0.000000000000e+00   0.000000000000e+00
  46199     3    4.609375000000    0.234375000000    0.438125000000    0.078125000000   0.000000000000e+00   0.000000000000e+00   0.000000000000e+00
  46167     3    4.609375000000    0.078125000000    0.438125000000    0.078125000000   0.000000000000e+00   0.000000000000e+00   0.000000000000e+00
  46198     3    4.453125000000    0.234375000000    0.438125000000    0.078125000000   0.000000000000e+00   0.000000000000e+00   0.000000000000e+00
  46200     3    4.765625000000    0.234375000000    0.438125000000    0.078125000000   0.000000000000e+00   0.000000000000e+00   0.000000000000e+00
  46169     3    4.921875000000    0.078125000000    0.438125000000    0.078125000000   0.000000000000e+00   0.000000000000e+00   0.000000000000e+00
  46201     3    4.921875000000    0.234375000000    0.438125000000    0.078125000000   0.000000000000e+00   0.000000000000e+00   0.000000000000e+00
  46168     3    4.765625000000    0.078125000000    0.438125000000    0.078125000000   0.000000000000e+00   0.000000000000e+00   0.000000000000e+00
  46235     3    0.234375000000    0.546875000000    0.438125000000    0.078125000000   0.000000000000e+00   0.000000000000e+00   0.000000000000e+00
  46202     3    0.078125000000    0.390625000000    0.438125000000    0.078125000000   0.000000000000e+00   0.000000000000e+00   0.000000000000e+00
  46234     3    0.078125000000    0.546875000000    0.438125000000    0.078125000000   0.000000000000e+00   0.000000000000e+00   0.000000000000e+00
  46203     3    0.234375000000    0.390625000000    0.438125000000    0.078125000000   0.000000000000e+00   0.000000000000e+00   0.000000000000e+00
  46237     3    0.546875000000    0.546875000000    0.438125000000    0.078125000000   0.000000000000e+00   0.000000000000e+00   0.000000000000e+00
  46236     3    0.390625000000    0.546875000000    0.438125000000    0.078125000000   0.000000000000e+00   0.000000000000e+00   0.000000000000e+00
  46205     3    0.546875000000    0.390625000000    0.438125000000    0.078125000000   0.000000000000e+00   0.000000000000e+00   0.000000000000e+00
  46204     3    0.390625000000    0.390625000000    0.438125000000    0.078125000000   0.000000000000e+00   0.000000000000e+00   0.000000000000e+00
  46206     3    0.703125000000    0.390625000000    0.438125000000    0.078125000000   0.000000000000e+00   0.000000000000e+00   0.000000000000e+00
  46239     3    0.859375000000    0.546875000000    0.438125000000    0.078125000000  -1.386931496117e+02  -1.386931496117e+02   4.463675790241e+02
  46238     3    0.703125000000    0.546875000000    0.438125000000    0.078125000000   0.000000000000e+00   0.000000000000e+00   0.000000000000e+00
  46207     3    0.859375000000    0.390625000000    0.438125000000    0.078125000000   0.000000000000e+00   0.000000000000e+00   0.000000000000e+00
  46209     3    1.171875000000    0.390625000000    0.438125000000    0.078125000000   0.000000000000e+00   0.000000000000e+00   0.000000000000e+00
  46240     3    1.015625000000    0.546875000000    0.438125000000    0.078125000000   1.386931496117e+02  -1.386931496117e+02   4.463675790241e+02
  46241     3    1.171875000000    0.546875000000    0.438125000000    0.078125000000   0.000000000000e+00   0.000000000000e+00   0.000000000000e+00
  46208     3    1.015625000000    0.390625000000    0.438125000000    0.078125000000   0.000000000000e+00   0.000000000000e+00   0.000000000000e+00
  46243     3    1.484375000000    0.546875000000    0.438125000000    0.078125000000   0.000000000000e+00   0.000000000000e+00   0.000000000000e+00
  46242     3    1.328125000000    0.546875000000    0.438125000000    0.078125000000   0.000000000000e+00   0.000000000000e+00   0.000000000000e+00
  46211     3    1.484375000000    0.390625000000    0.438125000000    0.078125000000  -1.386931496117e+02   1.386931496117e+02   4.463675790241e+02
  46210     3    1.328125000000    0.390625000000    0.438125000000    0.078125000000   0.000000000000e+00   0.000000000000e+00   0.000000000000e+00
  46244     3    1.640625000000    0.546875000000    0.438125000000    0.078125000000   0.000000000000e+00   0.000000000000e+00   0.000000000000e+00
  46212     3    1.640625000000    0.390625000000    0.438125000000    0.078125000000   1.386931496117e+02   1.386931496117e+02   4.463675790241e+02
  46213     3    1.796875000000    0.390625000000    0.438125000000    0.078125000000   0.000000000000e+00   0.000000000000e+00   0.000000000000e+00
  46245     3    1.796875000000    0.546875000000    0.438125000000    0.078125000000   0.000000000000e+00   0.000000000000e+00   0.000000000000e+00
  46247     3    2.109375000000    0.546875000000    0.438125000000    0.078125000000   0.000000000000e+00   0.000000000000e+00   0.000000000000e+00
  46214     3    1.953125000000    0.390625000000    0.438125000000    0.078125000000   0.000000000000e+00   0.000000000000e+00   0.000000000000e+00
  46215     3    2.109375000000    0.390625000000    0.438125000000    0.078125000000   0.000000000000e+00   0.000000000000e+00   0.000000000000e+00
  46246     3    1.953125000000    0.546875000000    0.438125000000    0.078125000000   0.000000000000e+00   0.000000000000e+00   0.000000000000e+00
  46249     3    2.421875000000    0.546875000000    0.438125000000    0.078125000000   0.000000000000e+00   0.000000000000e+00   0.000000000000e+00
  46248     3    2.265625000000    0.546875000000    0.438125000000    0.078125000000   0.000000000000e+00   0.000000000000e+00   0.000000000000e+00
  46216     3    2.265625000000    0.390625000000    0.438125000000    0.078125000000   0.000000000000e+00   0.000000000000e+00   0.000000000000e+00
  46217     3    2.421875000000    0.390625000000    0.438125000000    0.078125000000   0.000000000000e+00   0.000000000000e+00   0.000000000000e+00
  46250     3    2.578125000000    0.546875000000    0.438125000000    0.078125000000   0.000000000000e+00   0.000000000000e+00   0.000000000000e+00
  46219     3    2.734375000000    0.390625000000    0.438125000000    0.078125000000   0.000000000000e+00   0.000000000000e+00   0.000000000000e+00
  46251     3    2.734375000000    0.546875000000    0.438125000000    0.078125000000   0.000000000000e+00   0.000000000000e+00   0.000000000000e+00
  46218     3    2.578125000000    0.390625000000    0.438125000000    0.078125000000   0.000000000000e+00   0.000000000000e+00   0.000000000000e+00
  46221     3    3.046875000000    0.390625000000    0.438125000000    0.078125000000   0.000000000000e+00   0.000000000000e+00   0.000000000000e+00
  46252     3    2.890625000000    0.546875000000    0.438125000000    0.078125000000   0.000000000000e+00   0.000000000000e+00   0.000000000000e+00
  46253     3    3.046875000000    0.546875000000    0.438125000000    0.078125000000   0.000000000000e+00   0.000000000000e+00   0.000000000000e+00
  46220     3    2.890625000000    0.390625000000    0.438125000000    0.078125000000   0.000000000000e+00   0.000000000000e+00   0.000000000000e+00
  46255     3    3.359375000000    0.546875000000    0.438125000000    0.078125000000   0.000000000000e+00   0.000000000000e+00   0.000000000000e+00
  46254     3    3.203125000000    0.546875000000    0.438125000000    0.078125000000   0.000000000000e+00   0.000000000000e+00   0.000000000000e+00
  46223     3    3.359375000000    0.390625000000    0.438125000000    0.078125000000   0.000000000000e+00   0.000000000000e+00   0.000000000000e+00
  46222     3    3.203125000000    0.390625000000    0.438125000000    0.078125000000   0.000000000000e+00   0.000000000000e+00   0.000000000000e+00
  46224     3    3.515625000000    0.390625000000    0.438125000000    0.078125000000   0.000000000000e+00   0.000000000000e+00   0.000000000000e+00
  46256     3    3.515625000000    0.546875000000    0.438125000000    0.078125000000   0.000000000000e+00   0.000000000000e+00   0.000000000000e+00
  46257     3    3.671875000000    0.546875000000    0.438125000000    0.078125000000   0.000000000000e+00   0.000000000000e+00   0.000000000000e+00
  46225     3    3.671875000000    0.390625000000    0.438125000000    0.078125000000   0.000000000000e+00   0.000000000000e+00   0.000000000000e+00
  46258     3    3.828125000000    0.546875000000    0.438125000000    0.078125000000   0.000000000000e+00   0.000000000000e+00   0.000000000000e+00
  46259     3    3.984375000000    0.546875000000    0.438125000000    0.078125000000   0.000000000000e+00   0.000000000000e+00   0.000000000000e+00
  46227     3    3.984375000000    0.390625000000    0.438125000000    0.078125000000   0.000000000000e+00   0.000000000000e+00   0.000000000000e+00
  46226     3    3.828125000000    0.390625000000    0.438125000000    0.078125000000   0.000000000000e+00   0.000000000000e+00   0.000000000000e+00
  46260     3    4.140625000000    0.546875000000    0.438125000000    0.078125000000   0.000000000000e+00   0.000000000000e+00   0.000000000000e+00
  46228     3    4.140625000000    0.390625000000    0.438125000000    0.078125000000   0.000000000000e+00   0.000000000000e+00   0.000000000000e+00
  46229     3    4.296875000000    0.390625000000    0.438125000000    0.078125000000   0.000000000000e+00   0.000000000000e+00   0.000000000000e+00
  46261     3    4.296875000000    0.546875000000    0.438125000000    0.078125000000   0.000000000000e+00   0.000000000000e+00   0.000000000000e+00
  46262     3    4.453125000000    0.546875000000    0.438125000000    0.078125000000   0.000000000000e+00   0.000000000000e+00   0.000000000000e+00
  46231     3    4.609375000000    0.390625000000    0.438125000000    0.078125000000   0.000000000000e+00   0.000000000000e+00   0.000000000000e+00
  46230     3    4.453125000000    0.390625000000    0.438125000000    0.078125000000   0.000000000000e+00   0.000000000000e+00   0.000000000000e+00
  46263     3    4.609375000000    0.546875000000    0.438125000000    0.078125000000   0.000000000000e+00   0.000000000000e+00   0.000000000000e+00
  46264     3    4.765625000000    0.546875000000    0.438125000000    0.078125000000   0.000000000000e+00   0.000000000000e+00   0.000000000000e+00
  46233     3    4.921875000000    0.390625000000    0.438125000000    0.078125000000   0.000000000000e+00   0.000000000000e+00   0.000000000000e+00
  46265     3    4.921875000000    0.546875000000    0.438125000000    0.078125000000   0.000000000000e+00   0.000000000000e+00   0.000000000000e+00
  46232     3    4.765625000000    0.390625000000    0.438125000000    0.078125000000   0.000000000000e+00   0.000000000000e+00   0.000000000000e+00
  46267     3    0.234375000000    0.703125000000    0.438125000000    0.078125000000   0.000000000000e+00   0.000000000000e+00   0.000000000000e+00
  46298     3    0.078125000000    0.859375000000    0.438125000000    0.078125000000   0.000000000000e+00   0.000000000000e+00   0.000000000000e+00
  46299     3    0.234375000000    0.859375000000    0.438125000000    0.078125000000   0.000000000000e+00   0.000000000000e+00   0.000000000000e+00
  46266     3    0.078125000000    0.703125000000    0.438125000000    0.078125000000   0.000000000000e+00   0.000000000000e+00   0.000000000000e+00
  46269     3    0.546875000000    0.703125000000    0.438125000000    0.078125000000   0.000000000000e+00   0.000000000000e+00   0.000000000000e+00
  46301     3    0.546875000000    0.859375000000    0.438125000000    0.078125000000   0.000000000000e+00   0.000000000000e+00   0.000000000000e+00
  46268     3    0.390625000000    0.703125000000    0.438125000000    0.078125000000   0.000000000000e+00   0.000000000000e+00   0.000000000000e+00
  46300     3    0.390625000000    0.859375000000    0.438125000000    0.078125000000   0.000000000000e+00   0.000000000000e+00   0.000000000000e+00
  46271     3    0.859375000000    0.703125000000    0.438125000000    0.078125000000  -1.386931496117e+02   1.386931496117e+02   4.463675790241e+02
  46302     3    0.703125000000    0.859375000000    0.438125000000    0.078125000000   0.000000000000e+00   0.000000000000e+00   0.000000000000e+00
  46303     3    0.859375000000    0.859375000000    0.438125000000    0.078125000000   0.000000000000e+00   0.000000000000e+00   0.000000000000e+00
  46270     3    0.703125000000    0.703125000000    0.438125000000    0.078125000000   0.000000000000e+00   0.000000000000e+00   0.000000000000e+00
  46305     3    1.171875000000    0.859375000000    0.438125000000    0.078125000000   0.000000000000e+00   0.000000000000e+00   0.000000000000e+00
  46272     3    1.015625000000    0.703125000000    0.438125000000    0.078125000000   1.386931496117e+02   1.386931496117e+02   4.463675790241e+02
  46304     3    1.015625000000    0.859375000000    0.438125000000    0.078125000000   0.000000000000e+00   0.000000000000e+00   0.000000000000e+00
  46273     3    1.171875000000    0.703125000000    0.438125000000    0.078125000000   0.000000000000e+00   0.000000000000e+00   0.000000000000e+00
  46274     3    1.328125000000    0.703125000000    0.438125000000    0.078125000000   0.000000000000e+00   0.000000000000e+00   0.000000000000e+00
  46275     3    1.484375000000    0.703125000000    0.438125000000    0.078125000000   0.000000000000e+00   0.000000000000e+00   0.000000000000e+00
  46307     3    1.484375000000    0.859375000000    0.438125000000    0.078125000000   0.000000000000e+00   0.000000000000e+00   0.000000000000e+00
  46306     3    1.328125000000    0.859375000000    0.438125000000    0.078125000000   0.000000000000e+00   0.000000000000e+00   0.000000000000e+00
  46309     3    1.796875000000    0.859375000000    0.438125000000    0.078125000000   0.000000000000e+00   0.000000000000e+00   0.000000000000e+00
  46276     3    1.640625000000    0.703125000000    0.438125000000    0.078125000000   0.000000000000e+00   0.000000000000e+00   0.000000000000e+00
  46308     3    1.640625000000    0.859375000000    0.438125000000    0.078125000000   0.000000000000e+00   0.000000000000e+00   0.000000000000e+00
  46277     3    1.796875000000    0.703125000000    0.438125000000    0.078125000000   0.000000000000e+00   0.000000000000e+00   0.000000000000e+00
  46278     3    1.953125000000    0.703125000000    0.438125000000    0.078125000000   0.000000000000e+00   0.000000000000e+00   0.000000000000e+00
  46279     3    2.109375000000    0.703125000000    0.438125000000    0.078125000000   0.000000000000e+00   0.000000000000e+00   0.000000000000e+00
  46311     3    2.109375000000    0.859375000000    0.438125000000    0.078125000000   1.386931496117e+02  -1.386931496117e+02   4.463675790241e+02
  46310     3    1.953125000000    0.859375000000    0.438125000000    0.078125000000  -1.386931496117e+02  -1.386931496117e+02   4.463675790241e+02
  46281     3    2.421875000000    0.703125000000    0.438125000000    0.078125000000   0.000000000000e+00   0.000000000000e+00   0.000000000000e+00
  46312     3    2.265625000000    0.859375000000    0.438125000000    0.078125000000   0.000000000000e+00   0.000000000000e+00   0.000000000000e+00
  46313     3    2.421875000000    0.859375000000    0.438125000000    0.078125000000   0.000000000000e+00   0.000000000000e+00   0.000000000000e+00
  46280     3    2.265625000000    0.703125000000    0.438125000000    0.078125000000   0.000000000000e+00   0.000000000000e+00   0.000000000000e+00
  46314     3    2.578125000000    0.859375000000    0.438125000000    0.078125000000   0.000000000000e+00   0.000000000000e+00   0.000000000000e+00
  46282     3    2.578125000000    0.703125000000    0.438125000000    0.078125000000   0.000000000000e+00   0.000000000000e+00   0.000000000000e+00
  46283     3    2.734375000000    0.703125000000    0.438125000000    0.078125000000   0.000000000000e+00   0.000000000000e+00   0.000000000000e+00
  46315     3    2.734375000000    0.859375000000    0.438125000000    0.078125000000   0.000000000000e+00   0.000000000000e+00   0.000000000000e+00
  46317     3    3.046875000000    0.859375000000    0.438125000000    0.078125000000   0.000000000000e+00   0.000000000000e+00   0.000000000000e+00
  46285     3    3.046875000000    0.703125000000    0.438125000000    0.078125000000   0.000000000000e+00   0.000000000000e+00   0.000000000000e+00
  46316     3    2.890625000000    0.859375000000    0.438125000000    0.078125000000   0.000000000000e+00   0.000000000000e+00   0.000000000000e+00
  46284     3    2.890625000000    0.703125000000    0.438125000000    0.078125000000   0.000000000000e+00   0.000000000000e+00   0.000000000000e+00
  46318     3    3.203125000000    0.859375000000    0.438125000000    0.078125000000  -1.386931496117e+02  -1.386931496117e+02   4.463675790241e+02
  46287     3    3.359375000000    0.703125000000    0.438125000000    0.078125000000   0.000000000000e+00   0.000000000000e+00   0.000000000000e+00