ITEM: TIMESTEP
1146000
ITEM: NUMBER OF ATOMS
1059
ITEM: BOX BOUNDS ff ff ff
0.0000000000000000e+00 5.0000000000000000e+00
0.0000000000000000e+00 5.0000000000000000e+00
0.0000000000000000e+00 3.0156250000000000e+01
ITEM: ATOMS id type x y z radius fx fy fz
    114     1    0.781250000000    0.184206023277    0.134044730380    0.200000000000   4.147117517282e-14   1.004253312749e+00   6.472421780734e+00
    138     1    1.718750000000    0.312500000000    0.133977222099    0.200000000000  -3.210058537228e-16   1.437562693865e-15   5.837211385231e+00
     87     1    2.343750000000    0.312500000000    0.133977222099    0.200000000000   4.222245834296e-17   1.261342638495e-15   5.837211384733e+00
    163     1    3.750000000000    0.312500000000    0.133977222099    0.200000000000  -5.653988928483e-16  -1.599435116245e-16   5.837211384864e+00
    157     1    4.375000000000    0.468750000000    0.133977222099    0.200000000000   4.643823075985e-18   6.166106529896e-18   5.837211385231e+00
     37     1    0.781250000000    0.781250000000    0.133977222099    0.200000000000   2.840074334536e-18  -1.140869485544e-16   5.837211385111e+00
    229     1    3.281250000000    0.625000000000    0.133977222099    0.200000000000  -3.945764552687e-19   4.514135583950e-19   5.837211384616e+00
     11     1    0.312500000000    1.250000000000    0.133977222099    0.200000000000  -5.028718132043e-19   5.164469212872e-18   5.837211384980e+00
    192     1    1.250000000000    1.250000000000    0.133977222099    0.200000000000   2.083729763909e-16   4.185681489910e-17   5.837211385588e+00
    196     1    2.031250000000    1.406250000000    0.133977222099    0.200000000000  -1.750038897891e-17  -7.513487391676e-17   5.837211385358e+00
     19     1    4.687500000000    1.250000000000    0.133977222099    0.200000000000  -1.012491068959e-18  -5.332338904262e-18   5.837211385471e+00
    160     1    1.718750000000    1.718750000000    0.133977222099    0.200000000000   7.728046660423e-20  -6.895795702842e-19   5.837211385096e+00
     93     1    2.822238287297    1.855534119200    0.134027705225    0.200000000000   3.918550165411e-01  -7.665659522802e-01   6.228788136010e+00
    172     1    3.750000000000    1.562500000000    0.133977222099    0.200000000000   2.025159174292e-17   3.970106766661e-18   5.837211385478e+00
     46     1    0.781250000000    1.875000000000    0.133977222099    0.200000000000  -6.686850817253e-18  -2.787656386550e-17   5.837211385355e+00
    216     1    4.687500000000    1.875000000000    0.133977222099    0.200000000000   2.817078461048e-17  -1.224002037425e-17   5.837211385358e+00
    199     1    2.646511049713    2.206967201048    0.134027766157    0.200000000000  -3.918775526838e-01   7.666074225897e-01   6.228873166037e+00
    176     1    3.593750000000    2.187500000000    0.133977222099    0.200000000000   2.063768338810e-16   1.318031504025e-16   5.837211384740e+00
     31     1    4.062500000000    2.187500000000    0.133977222099    0.200000000000   1.533166605265e-18   3.106392337693e-18   5.837211384747e+00
    189     1    2.343750000000    2.656250000000    0.133977222099    0.200000000000  -1.140559274474e-19   9.770680548484e-19   5.837211385478e+00
    226     1    0.781250000000    2.968750000000    0.133977222099    0.200000000000  -1.626734160556e-16  -1.284046307050e-16   5.837211385478e+00
    178     1    3.125000000000    2.812500000000    0.133977222099    0.200000000000   1.570279335749e-17  -8.381533780584e-18   5.837211384864e+00
    162     1    0.781250000000    3.437500000000    0.133977222099    0.200000000000  -9.875482931922e-18   1.853705705536e-17   5.837211384747e+00
    218     1    2.187500000000    3.437500000000    0.133977222099    0.200000000000  -5.537147681207e-18   1.818099960684e-16   5.837211385355e+00
     44     1    4.531250000000    3.593750000000    0.133977222099    0.200000000000  -1.870045662249e-17  -3.772624631823e-18   5.837211385100e+00
     82     1    0.312500000000    3.750000000000    0.133977222099    0.200000000000  -7.132760860791e-17   1.168406059264e-16   5.837211385722e+00
     34     1    2.187500000000    3.906250000000    0.133977222099    0.200000000000  -1.377091331569e-19   8.523282666266e-19   5.837211385588e+00
    175     1    3.125000000000    3.750000000000    0.133977222099    0.200000000000   1.358718946872e-19  -1.148800395960e-18   5.837211384980e+00
     28     1    1.718750000000    4.218750000000    0.133977222099    0.200000000000   6.510606919705e-19  -2.410281080628e-19   5.837211385111e+00
     76     1    2.656250000000    4.218750000000    0.133977222099    0.200000000000   1.355965613943e-17   1.164789013722e-17   5.837211384856e+00
     17     1    0.625000000000    4.531250000000    0.133977222099    0.200000000000   1.822080763492e-18   6.493655014187e-18   5.837211385355e+00
    220     1    1.093750000000    4.531250000000    0.133977222099    0.200000000000  -2.026194960885e-17  -1.792444241325e-17   5.837211384875e+00
     88     1    1.562500000000    4.687500000000    0.133977222099    0.200000000000  -1.159027753290e-18  -9.400076324384e-19   5.837211384875e+00
    184     1    3.281250000000    4.687500000000    0.133977222099    0.200000000000   1.266514184575e-16  -1.244080625809e-19   5.837211385093e+00
    165     1    4.531250000000    4.687500000000    0.133977222099    0.200000000000   1.532195579724e-16  -4.063638503279e-16   5.837211384864e+00
  46170     3    0.078125000000    0.234375000000    0.370125000000    0.078125000000   0.000000000000e+00   0.000000000000e+00   0.000000000000e+00
  46139     3    0.234375000000    0.078125000000    0.370125000000    0.078125000000   0.000000000000e+00   0.000000000000e+00   0.000000000000e+00
  46138     3    0.078125000000    0.078125000000    0.370125000000    0.078125000000   0.000000000000e+00   0.000000000000e+00   0.000000000000e+00
  46171     3    0.234375000000    0.234375000000    0.370125000000    0.078125000000   0.000000000000e+00   0.000000000000e+00   0.000000000000e+00
  46141     3    0.546875000000    0.078125000000    0.370125000000    0.078125000000   0.000000000000e+00   0.000000000000e+00   0.000000000000e+00
  46173     3    0.546875000000    0.234375000000    0.370125000000    0.078125000000   0.000000000000e+00   0.000000000000e+00   0.000000000000e+00
  46172     3    0.390625000000    0.234375000000    0.370125000000    0.078125000000   0.000000000000e+00   0.000000000000e+00   0.000000000000e+00
  46140     3    0.390625000000    0.078125000000    0.370125000000    0.078125000000   0.000000000000e+00   0.000000000000e+00   0.000000000000e+00
  46175     3    0.859375000000    0.234375000000    0.370125000000    0.078125000000   2.788574255733e+03   1.790718936667e+03   8.426590235515e+03
  46143     3    0.859375000000    0.078125000000    0.370125000000    0.078125000000   4.692303811462e+02  -6.371384190016e+02   1.417933246656e+03
  46142     3    0.703125000000    0.078125000000    0.370125000000    0.078125000000  -4.692303811462e+02  -6.371384190016e+02   1.417933246656e+03
  46174     3    0.703125000000    0.234375000000    0.370125000000    0.078125000000  -2.788574255733e+03   1.790718936667e+03   8.426590235515e+03
  46144     3    1.015625000000    0.078125000000    0.370125000000    0.078125000000   0.000000000000e+00   0.000000000000e+00   0.000000000000e+00
  46176     3    1.015625000000    0.234375000000    0.370125000000    0.078125000000   0.000000000000e+00   0.000000000000e+00   0.000000000000e+00
  46145     3    1.171875000000    0.078125000000    0.370125000000    0.078125000000   0.000000000000e+00   0.000000000000e+00   0.000000000000e+00
  46177     3    1.171875000000    0.234375000000    0.370125000000    0.078125000000   0.000000000000e+00   0.000000000000e+00   0.000000000000e+00
  46146     3    1.328125000000    0.078125000000    0.370125000000    0.078125000000   0.000000000000e+00   0.000000000000e+00   0.000000000000e+00
  46179     3    1.484375000000    0.234375000000    0.370125000000    0.078125000000   0.000000000000e+00   0.000000000000e+00   0.000000000000e+00
  46178     3    1.328125000000    0.234375000000    0.370125000000    0.078125000000   0.000000000000e+00   0.000000000000e+00   0.000000000000e+00
  46147     3    1.484375000000    0.078125000000    0.370125000000    0.078125000000   0.000000000000e+00   0.000000000000e+00   0.000000000000e+00
  46181     3    1.796875000000    0.234375000000    0.370125000000    0.078125000000   1.630972638746e+03  -1.630972638746e+03   4.929927225050e+03
  46149     3    1.796875000000    0.078125000000    0.370125000000    0.078125000000   0.000000000000e+00   0.000000000000e+00   0.000000000000e+00
  46180     3    1.640625000000    0.234375000000    0.370125000000    0.078125000000  -1.630972638746e+03  -1.630972638746e+03   4.929927225050e+03
  46148     3    1.640625000000    0.078125000000    0.370125000000    0.078125000000   0.000000000000e+00   0.000000000000e+00   0.000000000000e+00
  46150     3    1.953125000000    0.078125000000    0.370125000000    0.078125000000   0.000000000000e+00   0.000000000000e+00   0.000000000000e+00
  46151     3    2.109375000000    0.078125000000    0.370125000000    0.078125000000   0.000000000000e+00   0.000000000000e+00   0.000000000000e+00
  46182     3    1.953125000000    0.234375000000    0.370125000000    0.078125000000   0.000000000000e+00   0.000000000000e+00   0.000000000000e+00
  46183     3    2.109375000000    0.234375000000    0.370125000000    0.078125000000   0.000000000000e+00   0.000000000000e+00   0.000000000000e+00
  46152     3    2.265625000000    0.078125000000    0.370125000000    0.078125000000   0.000000000000e+00   0.000000000000e+00   0.000000000000e+00
  46153     3    2.421875000000    0.078125000000    0.370125000000    0.078125000000   0.000000000000e+00   0.000000000000e+00   0.000000000000e+00
  46184     3    2.265625000000    0.234375000000    0.370125000000    0.078125000000  -1.630972638746e+03  -1.630972638746e+03   4.929927225050e+03
  46185     3    2.421875000000    0.234375000000    0.370125000000    0.078125000000   1.630972638746e+03  -1.630972638746e+03   4.929927225050e+03
  46186     3    2.578125000000    0.234375000000    0.370125000000    0.078125000000   0.000000000000e+00   0.000000000000e+00   0.000000000000e+00
  46155     3    2.734375000000    0.078125000000    0.370125000000    0.078125000000   0.000000000000e+00   0.000000000000e+00   0.000000000000e+00
  46187     3    2.734375000000    0.234375000000    0.370125000000    0.078125000000   0.000000000000e+00   0.000000000000e+00   0.000000000000e+00
  46154     3    2.578125000000    0.078125000000    0.370125000000    0.078125000000   0.000000000000e+00   0.000000000000e+00   0.000000000000e+00
  46157     3    3.046875000000    0.078125000000    0.370125000000    0.078125000000   0.000000000000e+00   0.000000000000e+00   0.000000000000e+00
  46156     3    2.890625000000    0.078125000000    0.370125000000    0.078125000000   0.000000000000e+00   0.000000000000e+00   0.000000000000e+00
  46189     3    3.046875000000    0.234375000000    0.370125000000    0.078125000000   0.000000000000e+00   0.000000000000e+00   0.000000000000e+00
  46188     3    2.890625000000    0.234375000000    0.370125000000    0.078125000000   0.000000000000e+00   0.000000000000e+00   0.000000000000e+00
  46190     3    3.203125000000    0.234375000000    0.370125000000    0.078125000000   0.000000000000e+00   0.000000000000e+00   0.000000000000e+00
  46159     3    3.359375000000    0.078125000000    0.370125000000    0.078125000000   0.000000000000e+00   0.000000000000e+00   0.000000000000e+00
  46191     3    3.359375000000    0.234375000000    0.370125000000    0.078125000000   0.000000000000e+00   0.000000000000e+00   0.000000000000e+00
  46158     3    3.203125000000    0.078125000000    0.370125000000    0.078125000000   0.000000000000e+00   0.000000000000e+00   0.000000000000e+00
  46193     3    3.671875000000    0.234375000000    0.370125000000    0.078125000000  -1.630972638746e+03  -1.630972638746e+03   4.929927225050e+03
  46160     3    3.515625000000    0.078125000000    0.370125000000    0.078125000000   0.000000000000e+00   0.000000000000e+00   0.000000000000e+00
  46161     3    3.671875000000    0.078125000000    0.370125000000    0.078125000000   0.000000000000e+00   0.000000000000e+00   0.000000000000e+00
  46192     3    3.515625000000    0.234375000000    0.370125000000    0.078125000000   0.000000000000e+00   0.000000000000e+00   0.000000000000e+00
  46195     3    3.984375000000    0.234375000000    0.370125000000    0.078125000000   0.000000000000e+00   0.000000000000e+00   0.000000000000e+00
  46162     3    3.828125000000    0.078125000000    0.370125000000    0.078125000000   0.000000000000e+00   0.000000000000e+00   0.000000000000e+00
  46163     3    3.984375000000    0.078125000000    0.370125000000    0.078125000000   0.000000000000e+00   0.000000000000e+00   0.000000000000e+00
  46194     3    3.828125000000    0.234375000000    0.370125000000    0.078125000000   1.630972638746e+03  -1.630972638746e+03   4.929927225050e+03
  46164     3    4.140625000000    0.078125000000    0.370125000000    0.078125000000   0.000000000000e+00   0.000000000000e+00   0.000000000000e+00
  46165     3    4.296875000000    0.078125000000    0.370125000000    0.078125000000   0.000000000000e+00   0.000000000000e+00   0.000000000000e+00
  46196     3    4.140625000000    0.234375000000    0.370125000000    0.078125000000   0.000000000000e+00   0.000000000000e+00   0.000000000000e+00
  46197     3    4.296875000000    0.234375000000    0.370125000000    0.078125000000   0.000000000000e+00   0.000000000000e+00   0.000000000000e+00
  46199     3    4.609375000000    0.234375000000    0.370125000000    0.078125000000   0.000000000000e+00   0.000000000000e+00   0.000000000000e+00
  46166     3    4.453125000000    0.078125000000    0.370125000000    0.078125000000   0.000000000000e+00   0.000000000000e+00   0.000000000000e+00
  46167     3    4.609375000000    0.078125000000    0.370125000000    0.078125000000   0.000000000000e+00   0.000000000000e+00   0.000000000000e+00
  46198     3    4.453125000000    0.234375000000    0.370125000000    0.078125000000   0.000000000000e+00   0.000000000000e+00   0.000000000000e+00
  46168     3    4.765625000000    0.078125000000    0.370125000000    0.078125000000   0.000000000000e+00   0.000000000000e+00   0.000000000000e+00
  46201     3    4.921875000000    0.234375000000    0.370125000000    0.078125000000   0.000000000000e+00   0.000000000000e+00   0.000000000000e+00
  46200     3    4.765625000000    0.234375000000    0.370125000000    0.078125000000   0.000000000000e+00   0.000000000000e+00   0.000000000000e+00
  46169     3    4.921875000000    0.078125000000    0.370125000000    0.078125000000   0.000000000000e+00   0.000000000000e+00   0.000000000000e+00
  46234     3    0.078125000000    0.546875000000    0.370125000000    0.078125000000   0.000000000000e+00   0.000000000000e+00   0.000000000000e+00
  46203     3    0.234375000000    0.390625000000    0.370125000000    0.078125000000   0.000000000000e+00   0.000000000000e+00   0.000000000000e+00
  46202     3    0.078125000000    0.390625000000    0.370125000000    0.078125000000   0.000000000000e+00   0.000000000000e+00   0.000000000000e+00
  46235     3    0.234375000000    0.546875000000    0.370125000000    0.078125000000   0.000000000000e+00   0.000000000000e+00   0.000000000000e+00
  46205     3    0.546875000000    0.390625000000    0.370125000000    0.078125000000   0.000000000000e+00   0.000000000000e+00   0.000000000000e+00
  46237     3    0.546875000000    0.546875000000    0.370125000000    0.078125000000   0.000000000000e+00   0.000000000000e+00   0.000000000000e+00
  46236     3    0.390625000000    0.546875000000    0.370125000000    0.078125000000   0.000000000000e+00   0.000000000000e+00   0.000000000000e+00
  46204     3    0.390625000000    0.390625000000    0.370125000000    0.078125000000   0.000000000000e+00   0.000000000000e+00   0.000000000000e+00
  46238     3    0.703125000000    0.546875000000    0.370125000000    0.078125000000   0.000000000000e+00   0.000000000000e+00   0.000000000000e+00
  46206     3    0.703125000000    0.390625000000    0.370125000000    0.078125000000   0.000000000000e+00   0.000000000000e+00   0.000000000000e+00
  46207     3    0.859375000000    0.390625000000    0.370125000000    0.078125000000   0.000000000000e+00   0.000000000000e+00   0.000000000000e+00
  46239     3    0.859375000000    0.546875000000    0.370125000000    0.078125000000   0.000000000000e+00   0.000000000000e+00   0.000000000000e+00
  46241     3    1.171875000000    0.546875000000    0.370125000000    0.078125000000   0.000000000000e+00   0.000000000000e+00   0.000000000000e+00
  46240     3    1.015625000000    0.546875000000    0.370125000000    0.078125000000   0.000000000000e+00   0.000000000000e+00   0.000000000000e+00
  46209     3    1.171875000000    0.390625000000    0.370125000000    0.078125000000   0.000000000000e+00   0.000000000000e+00   0.000000000000e+00
  46208     3    1.015625000000    0.390625000000    0.370125000000    0.078125000000   0.000000000000e+00   0.000000000000e+00   0.000000000000e+00
  46243     3    1.484375000000    0.546875000000    0.370125000000    0.078125000000   0.000000000000e+00   0.000000000000e+00   0.000000000000e+00
  46242     3    1.328125000000    0.546875000000    0.370125000000    0.078125000000   0.000000000000e+00   0.000000000000e+00   0.000000000000e+00
  46211     3    1.484375000000    0.390625000000    0.370125000000    0.078125000000   0.000000000000e+00   0.000000000000e+00   0.000000000000e+00
  46210     3    1.328125000000    0.390625000000    0.370125000000    0.078125000000   0.000000000000e+00   0.000000000000e+00   0.000000000000e+00
  46245     3    1.796875000000    0.546875000000    0.370125000000    0.078125000000   0.000000000000e+00   0.000000000000e+00   0.000000000000e+00
  46244     3    1.640625000000    0.546875000000    0.370125000000    0.078125000000   0.000000000000e+00   0.000000000000e+00   0.000000000000e+00
  46213     3    1.796875000000    0.390625000000    0.370125000000    0.078125000000   1.630972638746e+03   1.630972638746e+03   4.929927225050e+03
  46212     3    1.640625000000    0.390625000000    0.370125000000    0.078125000000  -1.630972638746e+03   1.630972638746e+03   4.929927225050e+03
  46247     3    2.109375000000    0.546875000000    0.370125000000    0.078125000000   0.000000000000e+00   0.000000000000e+00   0.000000000000e+00
  46246     3    1.953125000000    0.546875000000    0.370125000000    0.078125000000   0.000000000000e+00   0.000000000000e+00   0.000000000000e+00
  46215     3    2.109375000000    0.390625000000    0.370125000000    0.078125000000   0.000000000000e+00   0.000000000000e+00   0.000000000000e+00
  46214     3    1.953125000000    0.390625000000    0.370125000000    0.078125000000   0.000000000000e+00   0.000000000000e+00   0.000000000000e+00
  46249     3    2.421875000000    0.546875000000    0.370125000000    0.078125000000   0.000000000000e+00   0.000000000000e+00   0.000000000000e+00
  46248     3    2.265625000000    0.546875000000    0.370125000000    0.078125000000   0.000000000000e+00   0.000000000000e+00   0.000000000000e+00
  46217     3    2.421875000000    0.390625000000    0.370125000000    0.078125000000   1.630972638746e+03   1.630972638746e+03   4.929927225050e+03
  46216     3    2.265625000000    0.390625000000    0.370125000000    0.078125000000  -1.630972638746e+03   1.630972638746e+03   4.929927225050e+03
  46251     3    2.734375000000    0.546875000000    0.370125000000    0.078125000000   0.000000000000e+00   0.000000000000e+00   0.000000000000e+00
  46250     3    2.578125000000    0.546875000000    0.370125000000    0.078125000000   0.000000000000e+00   0.000000000000e+00   0.000000000000e+00
  46219     3    2.734375000000    0.390625000000    0.370125000000    0.078125000000   0.000000000000e+00   0.000000000000e+00   0.000000000000e+00
  46218     3    2.578125000000    0.390625000000    0.370125000000    0.078125000000   0.000000000000e+00   0.000000000000e+00   0.000000000000e+00
  46253     3    3.046875000000    0.546875000000    0.370125000000    0.078125000000   0.000000000000e+00   0.000000000000e+00   0.000000000000e+00
  46252     3    2.890625000000    0.546875000000    0.370125000000    0.078125000000   0.000000000000e+00   0.000000000000e+00   0.000000000000e+00
  46221     3    3.046875000000    0.390625000000    0.370125000000    0.078125000000   0.000000000000e+00   0.000000000000e+00   0.000000000000e+00
  46220     3    2.890625000000    0.390625000000    0.370125000000    0.078125000000   0.000000000000e+00   0.000000000000e+00   0.000000000000e+00
  46255     3    3.359375000000    0.546875000000    0.370125000000    0.078125000000   1.630972638746e+03  -1.630972638746e+03   4.929927225050e+03
  46254     3    3.203125000000    0.546875000000    0.370125000000    0.078125000000  -1.630972638746e+03  -1.630972638746e+03   4.929927225050e+03
  46223     3    3.359375000000    0.390625000000    0.370125000000    0.078125000000   0.000000000000e+00   0.000000000000e+00   0.000000000000e+00
  46222     3    3.203125000000    0.390625000000    0.370125000000    0.078125000000   0.000000000000e+00   0.000000000000e+00   0.000000000000e+00
  46257     3    3.671875000000    0.546875000000    0.370125000000    0.078125000000   0.000000000000e+00   0.000000000000e+00   0.000000000000e+00
  46256     3    3.515625000000    0.546875000000    0.370125000000    0.078125000000   0.000000000000e+00   0.000000000000e+00   0.000000000000e+00
  46225     3    3.671875000000    0.390625000000    0.370125000000    0.078125000000  -1.630972638746e+03   1.630972638746e+03   4.929927225050e+03
  46224     3    3.515625000000    0.390625000000    0.370125000000    0.078125000000   0.000000000000e+00   0.000000000000e+00   0.000000000000e+00
  46259     3    3.984375000000    0.546875000000    0.370125000000    0.078125000000   0.000000000000e+00   0.000000000000e+00   0.000000000000e+00
  46258     3    3.828125000000    0.546875000000    0.370125000000    0.078125000000   0.000000000000e+00   0.000000000000e+00   0.000000000000e+00
  46227     3    3.984375000000    0.390625000000    0.370125000000    0.078125000000   0.000000000000e+00   0.000000000000e+00   0.000000000000e+00
  46226     3    3.828125000000    0.390625000000    0.370125000000    0.078125000000   1.630972638746e+03   1.630972638746e+03   4.929927225050e+03
  46228     3    4.140625000000    0.390625000000    0.370125000000    0.078125000000   0.000000000000e+00   0.000000000000e+00   0.000000000000e+00
  46261     3    4.296875000000    0.546875000000    0.370125000000    0.078125000000  -1.630972638746e+03   1.630972638746e+03   4.929927225050e+03
  46260     3    4.140625000000    0.546875000000    0.370125000000    0.078125000000   0.000000000000e+00   0.000000000000e+00   0.000000000000e+00
  46229     3    4.296875000000    0.390625000000    0.370125000000    0.078125000000  -1.630972638746e+03  -1.630972638746e+03   4.929927225050e+03
  46263     3    4.609375000000    0.546875000000    0.370125000000    0.078125000000   0.000000000000e+00   0.000000000000e+00   0.000000000000e+00
  46262     3    4.453125000000    0.546875000000    0.370125000000    0.078125000000   1.630972638746e+03   1.630972638746e+03   4.929927225050e+03
  46230     3    4.453125000000    0.390625000000    0.370125000000    0.078125000000   1.630972638746e+03  -1.630972638746e+03   4.929927225050e+03
  46231     3    4.609375000000    0.390625000000    0.370125000000    0.078125000000   0.000000000000e+00   0.000000000000e+00   0.000000000000e+00
  46265     3    4.921875000000    0.546875000000    0.370125000000    0.078125000000   0.000000000000e+00   0.000000000000e+00   0.000000000000e+00
  46264     3    4.765625000000    0.546875000000    0.370125000000    0.078125000000   0.000000000000e+00   0.000000000000e+00   0.000000000000e+00
  46232     3    4.765625000000    0.390625000000    0.370125000000    0.078125000000   0.000000000000e+00   0.000000000000e+00   0.000000000000e+00
  46233     3    4.921875000000    0.390625000000    0.370125000000    0.078125000000   0.000000000000e+00   0.000000000000e+00   0.000000000000e+00
  46267     3    0.234375000000    0.703125000000    0.370125000000    0.078125000000   0.000000000000e+00   0.000000000000e+00   0.000000000000e+00
  46298     3    0.078125000000    0.859375000000    0.370125000000    0.078125000000   0.000000000000e+00   0.000000000000e+00   0.000000000000e+00
  46266     3    0.078125000000    0.703125000000    0.370125000000    0.078125000000   0.000000000000e+00   0.000000000000e+00   0.000000000000e+00
  46299     3    0.234375000000    0.859375000000    0.370125000000    0.078125000000   0.000000000000e+00   0.000000000000e+00   0.000000000000e+00
  46300     3    0.390625000000    0.859375000000    0.370125000000    0.078125000000   0.000000000000e+00   0.000000000000e+00   0.000000000000e+00
  46269     3    0.546875000000    0.703125000000    0.370125000000    0.078125000000   0.000000000000e+00   0.000000000000e+00   0.000000000000e+00
  46268     3    0.390625000000    0.703125000000    0.370125000000    0.078125000000   0.000000000000e+00   0.000000000000e+00   0.000000000000e+00
  46301     3    0.546875000000    0.859375000000    0.370125000000    0.078125000000   0.000000000000e+00   0.000000000000e+00   0.000000000000e+00
  46270     3    0.703125000000    0.703125000000    0.370125000000    0.078125000000  -1.630972638746e+03  -1.630972638746e+03   4.929927225050e+03
  46303     3    0.859375000000    0.859375000000    0.370125000000    0.078125000000   1.630972638746e+03   1.630972638746e+03   4.929927225050e+03
  46271     3    0.859375000000    0.703125000000    0.370125000000    0.078125000000   1.630972638746e+03  -1.630972638746e+03   4.929927225050e+03
  46302     3    0.703125000000    0.859375000000    0.370125000000    0.078125000000  -1.630972638746e+03   1.630972638746e+03   4.929927225050e+03
  46305     3    1.171875000000    0.859375000000    0.370125000000    0.078125000000   0.000000000000e+00   0.000000000000e+00   0.000000000000e+00
  46273     3    1.171875000000    0.703125000000    0.370125000000    0.078125000000   0.000000000000e+00   0.000000000000e+00   0.000000000000e+00
  46304     3    1.015625000000    0.859375000000    0.370125000000    0.078125000000   0.000000000000e+00   0.000000000000e+00   0.000000000000e+00
  46272     3    1.015625000000    0.703125000000    0.370125000000    0.078125000000   0.000000000000e+00   0.000000000000e+00   0.000000000000e+00
  46306     3    1.328125000000    0.859375000000    0.370125000000    0.078125000000   0.000000000000e+00   0.000000000000e+00   0.000000000000e+00
  46275     3    1.484375000000    0.703125000000    0.370125000000    0.078125000000   0.000000000000e+00   0.000000000000e+00   0.000000000000e+00
  46274     3    1.328125000000    0.703125000000    0.370125000000    0.078125000000   0.000000000000e+00   0.000000000000e+00   0.000000000000e+00
  46307     3    1.484375000000    0.859375000000    0.370125000000    0.078125000000   0.000000000000e+00   0.000000000000e+00   0.000000000000e+00
  46276     3    1.640625000000    0.703125000000    0.370125000000    0.078125000000   0.000000000000e+00   0.000000000000e+00   0.000000000000e+00
  46309     3    1.796875000000    0.859375000000    0.370125000000    0.078125000000   0.000000000000e+00   0.000000000000e+00   0.000000000000e+00
  46277     3    1.796875000000    0.703125000000    0.370125000000    0.078125000000   0.000000000000e+00   0.000000000000e+00   0.000000000000e+00
  46308     3    1.640625000000    0.859375000000    0.370125000000    0.078125000000   0.000000000000e+00   0.000000000000e+00   0.000000000000e+00
  46279     3    2.109375000000    0.703125000000    0.370125000000    0.078125000000   0.000000000000e+00   0.000000000000e+00   0.000000000000e+00
  46278     3    1.953125000000    0.703125000000    0.370125000000    0.078125000000   0.000000000000e+00   0.000000000000e+00   0.000000000000e+00
  46310     3    1.953125000000    0.859375000000    0.370125000000    0.078125000000   0.000000000000e+00   0.000000000000e+00   0.000000000000e+00
  46311     3    2.109375000000    0.859375000000    0.370125000000    0.078125000000   0.000000000000e+00   0.000000000000e+00   0.000000000000e+00
  46281     3    2.421875000000    0.703125000000    0.370125000000    0.078125000000   0.000000000000e+00   0.000000000000e+00   0.000000000000e+00
  46280     3    2.265625000000    0.703125000000    0.370125000000    0.078125000000   0.000000000000e+00   0.000000000000e+00   0.000000000000e+00
  46312     3    2.265625000000    0.859375000000    0.370125000000    0.078125000000   0.000000000000e+00   0.000000000000e+00   0.000000000000e+00
  46313     3    2.421875000000    0.859375000000    0.370125000000    0.078125000000   0.000000000000e+00   0.000000000000e+00   0.000000000000e+00
  46314     3    2.578125000000    0.859375000000    0.370125000000    0.078125000000   0.000000000000e+00   0.000000000000e+00   0.000000000000e+00
  46315     3    2.734375000000    0.859375000000    0.370125000000    0.078125000000   0.000000000000e+00   0.000000000000e+00   0.000000000000e+00
  46283     3    2.734375000000    0.703125000000    0.370125000000    0.078125000000   0.000000000000e+00   0.000000000000e+00   0.000000000000e+00
  46282     3    2.578125000000    0.703125000000    0.370125000000    0.078125000000   0.000000000000e+00   0.000000000000e+00   0.000000000000e+00