ITEM: TIMESTEP
3912000
ITEM: NUMBER OF ATOMS
1084
ITEM: BOX BOUNDS ff ff ff
0.0000000000000000e+00 5.0000000000000000e+00
0.0000000000000000e+00 5.0000000000000000e+00
0.0000000000000000e+00 3.0156250000000000e+01
ITEM: ATOMS id type x y z radius fx fy fz
     86     1    1.718750000000    0.194791540048    0.181909724146    0.200000000000  -1.423367764873e-16   8.406866783829e-02   5.441585183708e-01
     19     1    0.625000000000    0.468750000000    0.186688882147    0.200000000000   2.842245743606e-14  -2.845672913890e-14   2.364273490709e-01
     40     1    1.406250000000    0.468750000000    0.186688882147    0.200000000000  -3.021559003654e-17   2.708768718685e-17   2.364273490223e-01
    189     1    2.187500000000    0.312500000000    0.186688882147    0.200000000000  -2.842403123694e-14   5.682435768202e-14   2.364273490766e-01
     30     1    2.968750000000    0.468750000000    0.186688882147    0.200000000000  -1.915357076419e-17   2.014146267229e-17   2.364273490173e-01
    296     1    3.750000000000    0.312500000000    0.186688882147    0.200000000000   1.288382285542e-17  -2.853251331535e-14   2.364273490707e-01
    327     1    4.687500000000    0.468750000000    0.186688882147    0.200000000000   3.853127633453e-17  -2.845476676230e-14   2.364273490768e-01
     81     1    0.312500000000    0.781250000000    0.186688882147    0.200000000000   2.844596587223e-14   9.276106813184e-17   2.364273490766e-01
    308     1    2.031250000000    0.781250000000    0.186688882147    0.200000000000   1.906480143599e-17  -1.812111640831e-17   2.364273490766e-01
     43     1    3.906250000000    0.781250000000    0.186688882147    0.200000000000   2.844515566240e-14  -2.841533021918e-14   2.364273490766e-01
      6     1    4.375000000000    0.781250000000    0.186688882147    0.200000000000  -1.426025870139e-17  -2.840820798272e-14   2.364273490766e-01
    349     1    1.093750000000    0.937500000000    0.186688882147    0.200000000000   2.839597845752e-14   2.838028236616e-14   2.364273490709e-01
     28     1    2.656250000000    0.937500000000    0.186688882147    0.200000000000  -2.828539993107e-14   2.843594786314e-14   2.364273490766e-01
    274     1    3.437500000000    1.093750000000    0.186688882147    0.200000000000   2.841947623561e-14   2.840338874039e-14   2.364273490766e-01
    278     1    0.468750000000    1.250000000000    0.186688882147    0.200000000000   1.387783743931e-17  -6.448727209868e-18   2.364273490766e-01
    365     1    1.097810639929    1.397998845356    0.186261721128    0.200000000000   3.759019397617e-02  -7.506702732918e-02   3.038728225868e-01
    173     1    1.562500000000    1.406250000000    0.186688882147    0.200000000000  -2.430527827520e-17   9.514957200363e-18   2.364273490227e-01
    292     1    2.500000000000    1.406250000000    0.186688882147    0.200000000000   1.265469123749e-17  -1.429849930249e-17   2.364273490821e-01
     27     1    3.125000000000    1.406250000000    0.186688882147    0.200000000000   2.856139123989e-14   1.877127804416e-16   2.364273490709e-01
    170     1    4.375000000000    1.406250000000    0.186688882147    0.200000000000   2.855680726070e-14  -2.844092160644e-14   2.364273490766e-01
    244     1    0.932725091919    1.759254758989    0.181668083430    0.200000000000  -5.260226995234e-02   8.313411545451e-02   5.667246759499e-01
     41     1    0.312500000000    1.875000000000    0.186688882147    0.200000000000   2.839537941409e-14   2.838677866996e-14   2.364273490709e-01
     44     1    2.343750000000    1.875000000000    0.186688882147    0.200000000000   3.854263707979e-17   6.314528265479e-17   2.364273490766e-01
    138     1    2.968750000000    1.875000000000    0.186688882147    0.200000000000   2.657017711891e-17   5.636260042244e-14   2.364273490766e-01
     83     1    3.750000000000    2.031250000000    0.186688882147    0.200000000000   2.842966041629e-14  -4.812779158707e-18   2.364273490709e-01
     94     1    0.625000000000    2.187500000000    0.186688882147    0.200000000000   7.247254605994e-17   2.818366214588e-14   2.364273490223e-01
     82     1    1.093750000000    2.187500000000    0.186688882147    0.200000000000  -2.839270009933e-14  -7.203098361589e-17   2.364273490766e-01
    114     1    2.031250000000    2.343750000000    0.186688882147    0.200000000000   2.632525846566e-17  -2.839332866147e-14   2.364273490766e-01
    154     1    2.500000000000    2.343750000000    0.186688882147    0.200000000000   5.677415323376e-14  -1.279586693213e-18   2.364273490709e-01
    213     1    3.281250000000    2.187500000000    0.186688882147    0.200000000000  -2.838968459013e-14   2.330731045997e-17   2.364273490766e-01
    345     1    0.781250000000    2.656250000000    0.186688882147    0.200000000000  -2.847333776129e-14   2.842770807854e-14   2.364273490766e-01
    235     1    4.062500000000    2.656250000000    0.186688882147    0.200000000000  -2.838129929061e-14  -2.223237794167e-17   2.364273490821e-01
    323     1    4.531250000000    2.656250000000    0.186688882147    0.200000000000   9.852079165412e-18  -2.842351035849e-14   2.364273490709e-01
    302     1    0.312500000000    2.812500000000    0.186688882147    0.200000000000  -2.273720830045e-17   1.163691772188e-16   2.364273490223e-01
     26     1    1.718750000000    2.812500000000    0.186688882147    0.200000000000   2.233037011919e-17  -2.842605994675e-14   2.364273490766e-01
    247     1    2.187500000000    2.968750000000    0.186688882147    0.200000000000  -7.868376781871e-17  -2.434521591114e-17   2.364273490173e-01
    211     1    3.125000000000    2.812500000000    0.186688882147    0.200000000000  -2.841957602006e-14   2.843118888667e-14   2.364273490821e-01
     78     1    0.625000000000    3.125000000000    0.186688882147    0.200000000000  -3.303973219401e-17   3.580269418007e-17   2.364273490223e-01
    295     1    1.406250000000    3.125000000000    0.186688882147    0.200000000000  -1.363119708159e-17   5.977262508256e-17   2.364273490223e-01
    348     1    1.875000000000    3.281250000000    0.186688882147    0.200000000000   3.120222158085e-17   2.844454935490e-14   2.364273490709e-01
    287     1    2.656250000000    3.281250000000    0.186688882147    0.200000000000   2.843099289577e-14  -1.073763383993e-17   2.364273490821e-01
     36     1    3.281250000000    3.281250000000    0.186688882147    0.200000000000   8.154473815481e-17  -5.681643609357e-14   2.364273490766e-01
    111     1    3.750000000000    3.281250000000    0.186688882147    0.200000000000   5.678939938972e-14   1.638738921667e-17   2.364273490766e-01
    300     1    4.531250000000    3.125000000000    0.186688882147    0.200000000000   3.136469128334e-17   2.086261972354e-17   2.364273490709e-01
    104     1    0.937500000000    3.593750000000    0.186688882147    0.200000000000   2.827575472665e-14  -7.589931855921e-17   2.364273490766e-01
    328     1    2.968750000000    3.593750000000    0.186688882147    0.200000000000  -1.888852027239e-17   5.689862409494e-14   2.364273490821e-01
    143     1    4.531250000000    3.593750000000    0.186688882147    0.200000000000  -6.840462690186e-18  -1.626618252030e-17   2.364273490223e-01
    259     1    0.312500000000    3.750000000000    0.186688882147    0.200000000000  -2.842446871131e-14   2.116717353722e-17   2.364273490821e-01
     24     1    1.562500000000    3.906250000000    0.186688882147    0.200000000000  -2.828490479475e-14   2.842635489079e-14   2.364273490766e-01
    249     1    3.281250000000    3.906250000000    0.186688882147    0.200000000000  -2.839711374132e-14   2.834061175570e-14   2.364273490821e-01
    233     1    0.937500000000    4.062500000000    0.186688882147    0.200000000000   2.847497663851e-14  -5.654161872404e-17   2.364273490709e-01
    223     1    2.031250000000    4.218750000000    0.186688882147    0.200000000000   2.093160690142e-17   2.844943458906e-14   2.364273490766e-01
    134     1    2.656250000000    4.218750000000    0.186688882147    0.200000000000  -3.347320154370e-17  -1.847217756150e-17   2.364273490821e-01
    164     1    4.062500000000    4.218750000000    0.186688882147    0.200000000000   2.845252617707e-14   2.845845376231e-14   2.364273490823e-01
    107     1    4.531250000000    4.218750000000    0.186688882147    0.200000000000  -2.842015940208e-14  -8.519627998845e-17   2.364273490821e-01
     46     1    0.937500000000    4.531250000000    0.186688882147    0.200000000000  -2.834780216574e-14   2.842460865309e-14   2.364273490821e-01
    117     1    3.281250000000    4.531250000000    0.186688882147    0.200000000000  -2.850950852956e-14  -2.841515885200e-14   2.364273490223e-01
    131     1    2.343750000000    4.687500000000    0.186688882147    0.200000000000   2.843370893641e-14   2.816311678377e-14   2.364273490709e-01
    220     1    4.062500000000    4.687500000000    0.186688882147    0.200000000000   3.075164520348e-17   2.147117066051e-17   2.364273490768e-01
    232     1    4.687500000000    4.687500000000    0.186688882147    0.200000000000   2.593430554873e-14   1.199475750594e-15   2.364273490223e-01
  45165     3    0.078125000000    0.234375000000    0.438125000000    0.078125000000   0.000000000000e+00   0.000000000000e+00   0.000000000000e+00
  45134     3    0.234375000000    0.078125000000    0.438125000000    0.078125000000   0.000000000000e+00   0.000000000000e+00   0.000000000000e+00
  45133     3    0.078125000000    0.078125000000    0.438125000000    0.078125000000   0.000000000000e+00   0.000000000000e+00   0.000000000000e+00
  45166     3    0.234375000000    0.234375000000    0.438125000000    0.078125000000   0.000000000000e+00   0.000000000000e+00   0.000000000000e+00
  45135     3    0.390625000000    0.078125000000    0.438125000000    0.078125000000   0.000000000000e+00   0.000000000000e+00   0.000000000000e+00
  45136     3    0.546875000000    0.078125000000    0.438125000000    0.078125000000   0.000000000000e+00   0.000000000000e+00   0.000000000000e+00
  45167     3    0.390625000000    0.234375000000    0.438125000000    0.078125000000   0.000000000000e+00   0.000000000000e+00   0.000000000000e+00
  45168     3    0.546875000000    0.234375000000    0.438125000000    0.078125000000   0.000000000000e+00   0.000000000000e+00   0.000000000000e+00
  45170     3    0.859375000000    0.234375000000    0.438125000000    0.078125000000   0.000000000000e+00   0.000000000000e+00   0.000000000000e+00
  45137     3    0.703125000000    0.078125000000    0.438125000000    0.078125000000   0.000000000000e+00   0.000000000000e+00   0.000000000000e+00
  45138     3    0.859375000000    0.078125000000    0.438125000000    0.078125000000   0.000000000000e+00   0.000000000000e+00   0.000000000000e+00
  45169     3    0.703125000000    0.234375000000    0.438125000000    0.078125000000   0.000000000000e+00   0.000000000000e+00   0.000000000000e+00
  45139     3    1.015625000000    0.078125000000    0.438125000000    0.078125000000   0.000000000000e+00   0.000000000000e+00   0.000000000000e+00
  45172     3    1.171875000000    0.234375000000    0.438125000000    0.078125000000   0.000000000000e+00   0.000000000000e+00   0.000000000000e+00
  45140     3    1.171875000000    0.078125000000    0.438125000000    0.078125000000   0.000000000000e+00   0.000000000000e+00   0.000000000000e+00
  45171     3    1.015625000000    0.234375000000    0.438125000000    0.078125000000   0.000000000000e+00   0.000000000000e+00   0.000000000000e+00
  45141     3    1.328125000000    0.078125000000    0.438125000000    0.078125000000   0.000000000000e+00   0.000000000000e+00   0.000000000000e+00
  45174     3    1.484375000000    0.234375000000    0.438125000000    0.078125000000   0.000000000000e+00   0.000000000000e+00   0.000000000000e+00
  45173     3    1.328125000000    0.234375000000    0.438125000000    0.078125000000   0.000000000000e+00   0.000000000000e+00   0.000000000000e+00
  45142     3    1.484375000000    0.078125000000    0.438125000000    0.078125000000   0.000000000000e+00   0.000000000000e+00   0.000000000000e+00
  45176     3    1.796875000000    0.234375000000    0.438125000000    0.078125000000   4.312507802088e+02   2.185010942403e+02   1.414310881456e+03
  45175     3    1.640625000000    0.234375000000    0.438125000000    0.078125000000  -4.312507802088e+02   2.185010942403e+02   1.414310881456e+03
  45144     3    1.796875000000    0.078125000000    0.438125000000    0.078125000000   0.000000000000e+00   0.000000000000e+00   0.000000000000e+00
  45143     3    1.640625000000    0.078125000000    0.438125000000    0.078125000000   0.000000000000e+00   0.000000000000e+00   0.000000000000e+00
  45178     3    2.109375000000    0.234375000000    0.438125000000    0.078125000000  -1.386931496117e+02  -1.386931496117e+02   4.463675790241e+02
  45146     3    2.109375000000    0.078125000000    0.438125000000    0.078125000000   0.000000000000e+00   0.000000000000e+00   0.000000000000e+00
  45177     3    1.953125000000    0.234375000000    0.438125000000    0.078125000000   0.000000000000e+00   0.000000000000e+00   0.000000000000e+00
  45145     3    1.953125000000    0.078125000000    0.438125000000    0.078125000000   0.000000000000e+00   0.000000000000e+00   0.000000000000e+00
  45148     3    2.421875000000    0.078125000000    0.438125000000    0.078125000000   0.000000000000e+00   0.000000000000e+00   0.000000000000e+00
  45147     3    2.265625000000    0.078125000000    0.438125000000    0.078125000000   0.000000000000e+00   0.000000000000e+00   0.000000000000e+00
  45179     3    2.265625000000    0.234375000000    0.438125000000    0.078125000000   1.386931496117e+02  -1.386931496117e+02   4.463675790241e+02
  45180     3    2.421875000000    0.234375000000    0.438125000000    0.078125000000   0.000000000000e+00   0.000000000000e+00   0.000000000000e+00
  45150     3    2.734375000000    0.078125000000    0.438125000000    0.078125000000   0.000000000000e+00   0.000000000000e+00   0.000000000000e+00
  45181     3    2.578125000000    0.234375000000    0.438125000000    0.078125000000   0.000000000000e+00   0.000000000000e+00   0.000000000000e+00
  45149     3    2.578125000000    0.078125000000    0.438125000000    0.078125000000   0.000000000000e+00   0.000000000000e+00   0.000000000000e+00
  45182     3    2.734375000000    0.234375000000    0.438125000000    0.078125000000   0.000000000000e+00   0.000000000000e+00   0.000000000000e+00
  45183     3    2.890625000000    0.234375000000    0.438125000000    0.078125000000   0.000000000000e+00   0.000000000000e+00   0.000000000000e+00
  45152     3    3.046875000000    0.078125000000    0.438125000000    0.078125000000   0.000000000000e+00   0.000000000000e+00   0.000000000000e+00
  45151     3    2.890625000000    0.078125000000    0.438125000000    0.078125000000   0.000000000000e+00   0.000000000000e+00   0.000000000000e+00
  45184     3    3.046875000000    0.234375000000    0.438125000000    0.078125000000   0.000000000000e+00   0.000000000000e+00   0.000000000000e+00
  45185     3    3.203125000000    0.234375000000    0.438125000000    0.078125000000   0.000000000000e+00   0.000000000000e+00   0.000000000000e+00
  45153     3    3.203125000000    0.078125000000    0.438125000000    0.078125000000   0.000000000000e+00   0.000000000000e+00   0.000000000000e+00
  45154     3    3.359375000000    0.078125000000    0.438125000000    0.078125000000   0.000000000000e+00   0.000000000000e+00   0.000000000000e+00
  45186     3    3.359375000000    0.234375000000    0.438125000000    0.078125000000   0.000000000000e+00   0.000000000000e+00   0.000000000000e+00
  45155     3    3.515625000000    0.078125000000    0.438125000000    0.078125000000   0.000000000000e+00   0.000000000000e+00   0.000000000000e+00
  45156     3    3.671875000000    0.078125000000    0.438125000000    0.078125000000   0.000000000000e+00   0.000000000000e+00   0.000000000000e+00
  45188     3    3.671875000000    0.234375000000    0.438125000000    0.078125000000  -1.386931496117e+02  -1.386931496117e+02   4.463675790241e+02
  45187     3    3.515625000000    0.234375000000    0.438125000000    0.078125000000   0.000000000000e+00   0.000000000000e+00   0.000000000000e+00
  45189     3    3.828125000000    0.234375000000    0.438125000000    0.078125000000   1.386931496117e+02  -1.386931496117e+02   4.463675790241e+02
  45158     3    3.984375000000    0.078125000000    0.438125000000    0.078125000000   0.000000000000e+00   0.000000000000e+00   0.000000000000e+00
  45190     3    3.984375000000    0.234375000000    0.438125000000    0.078125000000   0.000000000000e+00   0.000000000000e+00   0.000000000000e+00
  45157     3    3.828125000000    0.078125000000    0.438125000000    0.078125000000   0.000000000000e+00   0.000000000000e+00   0.000000000000e+00
  45160     3    4.296875000000    0.078125000000    0.438125000000    0.078125000000   0.000000000000e+00   0.000000000000e+00   0.000000000000e+00
  45191     3    4.140625000000    0.234375000000    0.438125000000    0.078125000000   0.000000000000e+00   0.000000000000e+00   0.000000000000e+00
  45192     3    4.296875000000    0.234375000000    0.438125000000    0.078125000000   0.000000000000e+00   0.000000000000e+00   0.000000000000e+00
  45159     3    4.140625000000    0.078125000000    0.438125000000    0.078125000000   0.000000000000e+00   0.000000000000e+00   0.000000000000e+00
  45194     3    4.609375000000    0.234375000000    0.438125000000    0.078125000000   0.000000000000e+00   0.000000000000e+00   0.000000000000e+00
  45161     3    4.453125000000    0.078125000000    0.438125000000    0.078125000000   0.000000000000e+00   0.000000000000e+00   0.000000000000e+00
  45162     3    4.609375000000    0.078125000000    0.438125000000    0.078125000000   0.000000000000e+00   0.000000000000e+00   0.000000000000e+00
  45193     3    4.453125000000    0.234375000000    0.438125000000    0.078125000000   0.000000000000e+00   0.000000000000e+00   0.000000000000e+00
  45195     3    4.765625000000    0.234375000000    0.438125000000    0.078125000000   0.000000000000e+00   0.000000000000e+00   0.000000000000e+00
  45196     3    4.921875000000    0.234375000000    0.438125000000    0.078125000000   0.000000000000e+00   0.000000000000e+00   0.000000000000e+00
  45163     3    4.765625000000    0.078125000000    0.438125000000    0.078125000000   0.000000000000e+00   0.000000000000e+00   0.000000000000e+00
  45164     3    4.921875000000    0.078125000000    0.438125000000    0.078125000000   0.000000000000e+00   0.000000000000e+00   0.000000000000e+00
  45197     3    0.078125000000    0.390625000000    0.438125000000    0.078125000000   0.000000000000e+00   0.000000000000e+00   0.000000000000e+00
  45229     3    0.078125000000    0.546875000000    0.438125000000    0.078125000000   0.000000000000e+00   0.000000000000e+00   0.000000000000e+00
  45230     3    0.234375000000    0.546875000000    0.438125000000    0.078125000000   0.000000000000e+00   0.000000000000e+00   0.000000000000e+00
  45198     3    0.234375000000    0.390625000000    0.438125000000    0.078125000000   0.000000000000e+00   0.000000000000e+00   0.000000000000e+00
  45231     3    0.390625000000    0.546875000000    0.438125000000    0.078125000000   0.000000000000e+00   0.000000000000e+00   0.000000000000e+00
  45232     3    0.546875000000    0.546875000000    0.438125000000    0.078125000000  -1.386931496117e+02   1.386931496117e+02   4.463675790241e+02
  45200     3    0.546875000000    0.390625000000    0.438125000000    0.078125000000  -1.386931496117e+02  -1.386931496117e+02   4.463675790241e+02
  45199     3    0.390625000000    0.390625000000    0.438125000000    0.078125000000   0.000000000000e+00   0.000000000000e+00   0.000000000000e+00
  45234     3    0.859375000000    0.546875000000    0.438125000000    0.078125000000   0.000000000000e+00   0.000000000000e+00   0.000000000000e+00
  45201     3    0.703125000000    0.390625000000    0.438125000000    0.078125000000   1.386931496117e+02  -1.386931496117e+02   4.463675790241e+02
  45202     3    0.859375000000    0.390625000000    0.438125000000    0.078125000000   0.000000000000e+00   0.000000000000e+00   0.000000000000e+00
  45233     3    0.703125000000    0.546875000000    0.438125000000    0.078125000000   1.386931496117e+02   1.386931496117e+02   4.463675790241e+02
  45235     3    1.015625000000    0.546875000000    0.438125000000    0.078125000000   0.000000000000e+00   0.000000000000e+00   0.000000000000e+00
  45236     3    1.171875000000    0.546875000000    0.438125000000    0.078125000000   0.000000000000e+00   0.000000000000e+00   0.000000000000e+00
  45204     3    1.171875000000    0.390625000000    0.438125000000    0.078125000000   0.000000000000e+00   0.000000000000e+00   0.000000000000e+00
  45203     3    1.015625000000    0.390625000000    0.438125000000    0.078125000000   0.000000000000e+00   0.000000000000e+00   0.000000000000e+00
  45205     3    1.328125000000    0.390625000000    0.438125000000    0.078125000000  -1.386931496117e+02  -1.386931496117e+02   4.463675790241e+02
  45206     3    1.484375000000    0.390625000000    0.438125000000    0.078125000000   1.386931496117e+02  -1.386931496117e+02   4.463675790241e+02
  45237     3    1.328125000000    0.546875000000    0.438125000000    0.078125000000  -1.386931496117e+02   1.386931496117e+02   4.463675790241e+02
  45238     3    1.484375000000    0.546875000000    0.438125000000    0.078125000000   1.386931496117e+02   1.386931496117e+02   4.463675790241e+02
  45240     3    1.796875000000    0.546875000000    0.438125000000    0.078125000000   0.000000000000e+00   0.000000000000e+00   0.000000000000e+00
  45208     3    1.796875000000    0.390625000000    0.438125000000    0.078125000000   0.000000000000e+00   0.000000000000e+00   0.000000000000e+00
  45239     3    1.640625000000    0.546875000000    0.438125000000    0.078125000000   0.000000000000e+00   0.000000000000e+00   0.000000000000e+00
  45207     3    1.640625000000    0.390625000000    0.438125000000    0.078125000000   0.000000000000e+00   0.000000000000e+00   0.000000000000e+00
  45241     3    1.953125000000    0.546875000000    0.438125000000    0.078125000000   0.000000000000e+00   0.000000000000e+00   0.000000000000e+00
  45209     3    1.953125000000    0.390625000000    0.438125000000    0.078125000000   0.000000000000e+00   0.000000000000e+00   0.000000000000e+00
  45210     3    2.109375000000    0.390625000000    0.438125000000    0.078125000000  -1.386931496117e+02   1.386931496117e+02   4.463675790241e+02
  45242     3    2.109375000000    0.546875000000    0.438125000000    0.078125000000   0.000000000000e+00   0.000000000000e+00   0.000000000000e+00
  45244     3    2.421875000000    0.546875000000    0.438125000000    0.078125000000   0.000000000000e+00   0.000000000000e+00   0.000000000000e+00
  45243     3    2.265625000000    0.546875000000    0.438125000000    0.078125000000   0.000000000000e+00   0.000000000000e+00   0.000000000000e+00
  45211     3    2.265625000000    0.390625000000    0.438125000000    0.078125000000   1.386931496117e+02   1.386931496117e+02   4.463675790241e+02
  45212     3    2.421875000000    0.390625000000    0.438125000000    0.078125000000   0.000000000000e+00   0.000000000000e+00   0.000000000000e+00
  45213     3    2.578125000000    0.390625000000    0.438125000000    0.078125000000   0.000000000000e+00   0.000000000000e+00   0.000000000000e+00
  45214     3    2.734375000000    0.390625000000    0.438125000000    0.078125000000   0.000000000000e+00   0.000000000000e+00   0.000000000000e+00
  45245     3    2.578125000000    0.546875000000    0.438125000000    0.078125000000   0.000000000000e+00   0.000000000000e+00   0.000000000000e+00
  45246     3    2.734375000000    0.546875000000    0.438125000000    0.078125000000   0.000000000000e+00   0.000000000000e+00   0.000000000000e+00
  45215     3    2.890625000000    0.390625000000    0.438125000000    0.078125000000  -1.386931496117e+02  -1.386931496117e+02   4.463675790241e+02
  45216     3    3.046875000000    0.390625000000    0.438125000000    0.078125000000   1.386931496117e+02  -1.386931496117e+02   4.463675790241e+02
  45247     3    2.890625000000    0.546875000000    0.438125000000    0.078125000000  -1.386931496117e+02   1.386931496117e+02   4.463675790241e+02
  45248     3    3.046875000000    0.546875000000    0.438125000000    0.078125000000   1.386931496117e+02   1.386931496117e+02   4.463675790241e+02
  45217     3    3.203125000000    0.390625000000    0.438125000000    0.078125000000   0.000000000000e+00   0.000000000000e+00   0.000000000000e+00
  45218     3    3.359375000000    0.390625000000    0.438125000000    0.078125000000   0.000000000000e+00   0.000000000000e+00   0.000000000000e+00
  45249     3    3.203125000000    0.546875000000    0.438125000000    0.078125000000   0.000000000000e+00   0.000000000000e+00   0.000000000000e+00
  45250     3    3.359375000000    0.546875000000    0.438125000000    0.078125000000   0.000000000000e+00   0.000000000000e+00   0.000000000000e+00
  45252     3    3.671875000000    0.546875000000    0.438125000000    0.078125000000   0.000000000000e+00   0.000000000000e+00   0.000000000000e+00
  45219     3    3.515625000000    0.390625000000    0.438125000000    0.078125000000   0.000000000000e+00   0.000000000000e+00   0.000000000000e+00
  45220     3    3.671875000000    0.390625000000    0.438125000000    0.078125000000  -1.386931496117e+02   1.386931496117e+02   4.463675790241e+02
  45251     3    3.515625000000    0.546875000000    0.438125000000    0.078125000000   0.000000000000e+00   0.000000000000e+00   0.000000000000e+00
  45253     3    3.828125000000    0.546875000000    0.438125000000    0.078125000000   0.000000000000e+00   0.000000000000e+00   0.000000000000e+00
  45221     3    3.828125000000    0.390625000000    0.438125000000    0.078125000000   1.386931496117e+02   1.386931496117e+02   4.463675790241e+02
  45254     3    3.984375000000    0.546875000000    0.438125000000    0.078125000000   0.000000000000e+00   0.000000000000e+00   0.000000000000e+00
  45222     3    3.984375000000    0.390625000000    0.438125000000    0.078125000000   0.000000000000e+00   0.000000000000e+00   0.000000000000e+00
  45223     3    4.140625000000    0.390625000000    0.438125000000    0.078125000000   0.000000000000e+00   0.000000000000e+00   0.000000000000e+00
  45224     3    4.296875000000    0.390625000000    0.438125000000    0.078125000000   0.000000000000e+00   0.000000000000e+00   0.000000000000e+00
  45255     3    4.140625000000    0.546875000000    0.438125000000    0.078125000000   0.000000000000e+00   0.000000000000e+00   0.000000000000e+00
  45256     3    4.296875000000    0.546875000000    0.438125000000    0.078125000000   0.000000000000e+00   0.000000000000e+00   0.000000000000e+00
  45225     3    4.453125000000    0.390625000000    0.438125000000    0.078125000000   0.000000000000e+00   0.000000000000e+00   0.000000000000e+00
  45226     3    4.609375000000    0.390625000000    0.438125000000    0.078125000000  -1.386931496117e+02  -1.386931496117e+02   4.463675790241e+02
  45258     3    4.609375000000    0.546875000000    0.438125000000    0.078125000000  -1.386931496117e+02   1.386931496117e+02   4.463675790241e+02
  45257     3    4.453125000000    0.546875000000    0.438125000000    0.078125000000   0.000000000000e+00   0.000000000000e+00   0.000000000000e+00
  45227     3    4.765625000000    0.390625000000    0.438125000000    0.078125000000   1.386931496117e+02  -1.386931496117e+02   4.463675790241e+02
  45228     3    4.921875000000    0.390625000000    0.438125000000    0.078125000000   0.000000000000e+00   0.000000000000e+00   0.000000000000e+00
  45260     3    4.921875000000    0.546875000000    0.438125000000    0.078125000000   0.000000000000e+00   0.000000000000e+00   0.000000000000e+00
  45259     3    4.765625000000    0.546875000000    0.438125000000    0.078125000000   1.386931496117e+02   1.386931496117e+02   4.463675790241e+02
  45261     3    0.078125000000    0.703125000000    0.438125000000    0.078125000000   0.000000000000e+00   0.000000000000e+00   0.000000000000e+00
  45294     3    0.234375000000    0.859375000000    0.438125000000    0.078125000000  -1.386931496117e+02   1.386931496117e+02   4.463675790241e+02
  45262     3    0.234375000000    0.703125000000    0.438125000000    0.078125000000  -1.386931496117e+02  -1.386931496117e+02   4.463675790241e+02
  45293     3    0.078125000000    0.859375000000    0.438125000000    0.078125000000   0.000000000000e+00   0.000000000000e+00   0.000000000000e+00
  45263     3    0.390625000000    0.703125000000    0.438125000000    0.078125000000   1.386931496117e+02  -1.386931496117e+02   4.463675790241e+02
  45296     3    0.546875000000    0.859375000000    0.438125000000    0.078125000000   0.000000000000e+00   0.000000000000e+00   0.000000000000e+00
  45295     3    0.390625000000    0.859375000000    0.438125000000    0.078125000000   1.386931496117e+02   1.386931496117e+02   4.463675790241e+02
  45264     3    0.546875000000    0.703125000000    0.438125000000    0.078125000000   0.000000000000e+00   0.000000000000e+00   0.000000000000e+00
  45297     3    0.703125000000    0.859375000000    0.438125000000    0.078125000000   0.000000000000e+00   0.000000000000e+00   0.000000000000e+00
  45298     3    0.859375000000    0.859375000000    0.438125000000    0.078125000000   0.000000000000e+00   0.000000000000e+00   0.000000000000e+00
  45265     3    0.703125000000    0.703125000000    0.438125000000    0.078125000000   0.000000000000e+00   0.000000000000e+00   0.000000000000e+00