ITEM: TIMESTEP
3910000
ITEM: NUMBER OF ATOMS
1084
ITEM: BOX BOUNDS ff ff ff
0.0000000000000000e+00 5.0000000000000000e+00
0.0000000000000000e+00 5.0000000000000000e+00
0.0000000000000000e+00 3.0156250000000000e+01
ITEM: ATOMS id type x y z radius fx fy fz
     86     1    1.718750000000    0.196478710601    0.187324695383    0.200000000000   5.435977724079e-17   3.909372435544e-02   2.669777946282e-01
     19     1    0.625000000000    0.468750000000    0.192909466605    0.200000000000  -4.587878135845e-17   8.155397098474e-17   6.705979518733e-02
     40     1    1.406250000000    0.468750000000    0.192909466605    0.200000000000  -2.746019631493e-17   1.754493096621e-16   6.705979518335e-02
    189     1    2.187500000000    0.312500000000    0.192909466605    0.200000000000  -9.567901023290e-18   9.377470926759e-16   6.705979518335e-02
     30     1    2.968750000000    0.468750000000    0.192909466605    0.200000000000  -1.573837164069e-16   2.431776201064e-17   6.705979518324e-02
    296     1    3.750000000000    0.312500000000    0.192909466605    0.200000000000   3.657864994754e-16   1.108528455398e-18   6.705979514015e-02
    327     1    4.687500000000    0.468750000000    0.192909466605    0.200000000000  -3.019619401479e-17   1.997711010126e-18   6.705979518347e-02
     81     1    0.312500000000    0.781250000000    0.192909466605    0.200000000000  -8.283207498160e-17  -2.516272548275e-18   6.705979514402e-02
    308     1    2.031250000000    0.781250000000    0.192909466605    0.200000000000  -4.803678809123e-18  -9.602018232993e-17   6.705979514390e-02
     43     1    3.906250000000    0.781250000000    0.192909466605    0.200000000000  -8.872690280964e-17  -5.044450894320e-17   6.705979514402e-02
      6     1    4.375000000000    0.781250000000    0.192909466605    0.200000000000   1.036118288527e-16   8.364113990410e-17   6.705979517938e-02
    349     1    1.093750000000    0.937500000000    0.192909466605    0.200000000000  -1.232382164859e-17   8.260045353842e-18   6.705979517938e-02
     28     1    2.656250000000    0.937500000000    0.192909466605    0.200000000000  -6.084538008861e-16   3.873389165849e-15   6.705979518347e-02
    274     1    3.437500000000    1.093750000000    0.192909466605    0.200000000000   3.936112263882e-17  -1.901228206707e-17   6.705979518335e-02
    278     1    0.468750000000    1.250000000000    0.192909466605    0.200000000000   4.017931135927e-16   1.565804640411e-16   6.705979518335e-02
    365     1    1.097388260664    1.381086210884    0.189169619220    0.200000000000   2.486370825347e-02  -4.140832902535e-02   2.009035057690e-01
    173     1    1.562500000000    1.406250000000    0.192909466605    0.200000000000   2.377575229104e-17   1.483438289085e-16   6.705979518347e-02
    292     1    2.500000000000    1.406250000000    0.192909466605    0.200000000000  -1.282063447136e-17   2.406168986971e-17   6.705979518324e-02
     27     1    3.125000000000    1.406250000000    0.192909466605    0.200000000000  -7.479913359180e-16  -2.588518049919e-16   6.705979517915e-02
    170     1    4.375000000000    1.406250000000    0.192909466605    0.200000000000   4.894962975335e-17  -4.473842711285e-17   6.705979518335e-02
    244     1    0.933860971911    1.743870953260    0.189175809891    0.200000000000  -2.485554950544e-02   4.139764966788e-02   2.006845362855e-01
     41     1    0.312500000000    1.875000000000    0.192909466605    0.200000000000  -1.709763978076e-16  -2.510201577845e-17   6.705979514390e-02
     44     1    2.343750000000    1.875000000000    0.192909466605    0.200000000000  -1.076415195687e-17   9.790766384599e-17   6.705979518335e-02
    138     1    2.968750000000    1.875000000000    0.192909466605    0.200000000000  -9.664775371443e-16   1.504135091673e-15   6.705979518324e-02
     83     1    3.750000000000    2.031250000000    0.192909466605    0.200000000000   7.241395252719e-15   6.136336267101e-17   6.705979514402e-02
     94     1    0.625000000000    2.187500000000    0.192909466605    0.200000000000  -1.081891862815e-14  -1.140805499318e-16   6.705979517938e-02
     82     1    1.093750000000    2.187500000000    0.192909466605    0.200000000000   2.130491071410e-17   1.650431207858e-16   6.705979517938e-02
    114     1    2.031250000000    2.343750000000    0.192909466605    0.200000000000   1.097898768897e-17   1.707266905069e-17   6.705979518324e-02
    154     1    2.500000000000    2.343750000000    0.192909466605    0.200000000000   7.719498442375e-16   4.535992477654e-17   6.705979522280e-02
    213     1    3.281250000000    2.187500000000    0.192909466605    0.200000000000   2.096255040326e-16   1.285910371674e-14   6.705979518335e-02
    345     1    0.781250000000    2.656250000000    0.192909466605    0.200000000000   8.457190210729e-16  -5.931442298301e-16   6.705979514015e-02
    235     1    4.062500000000    2.656250000000    0.192909466605    0.200000000000  -1.981429665067e-16   4.306869517559e-16   6.705979518347e-02
    323     1    4.531250000000    2.656250000000    0.192909466605    0.200000000000   9.280720855571e-17  -4.588325349778e-16   6.705979518335e-02
    302     1    0.312500000000    2.812500000000    0.192909466605    0.200000000000   7.103813901765e-17   1.231015281935e-16   6.705979518324e-02
     26     1    1.718750000000    2.812500000000    0.192909466605    0.200000000000   1.975861950997e-16  -9.423502161844e-17   6.705979518335e-02
    247     1    2.187500000000    2.968750000000    0.192909466605    0.200000000000   8.530032631153e-17  -1.016894018431e-14   6.705979518335e-02
    211     1    3.125000000000    2.812500000000    0.192909466605    0.200000000000   1.308923065174e-17  -3.129956439507e-17   6.705979517938e-02
     78     1    0.625000000000    3.125000000000    0.192909466605    0.200000000000  -1.228622217848e-16   3.730756208387e-17   6.705979517938e-02
    295     1    1.406250000000    3.125000000000    0.192909466605    0.200000000000   1.862610524801e-15   1.476693979187e-16   6.705979518335e-02
    348     1    1.875000000000    3.281250000000    0.192909466605    0.200000000000   1.810147049388e-16  -4.806511590188e-17   6.705979518347e-02
    287     1    2.656250000000    3.281250000000    0.192909466605    0.200000000000   6.974239671800e-17   1.022493838287e-15   6.705979518335e-02
     36     1    3.281250000000    3.281250000000    0.192909466605    0.200000000000  -4.433093693065e-16   1.963904089215e-17   6.705979518324e-02
    111     1    3.750000000000    3.281250000000    0.192909466605    0.200000000000   1.003957442575e-16  -2.444707436177e-18   6.705979518335e-02
    300     1    4.531250000000    3.125000000000    0.192909466605    0.200000000000   1.955271804834e-17   1.089651986258e-16   6.705979518335e-02
    104     1    0.937500000000    3.593750000000    0.192909466605    0.200000000000   3.259875341843e-17   1.042818103908e-16   6.705979518324e-02
    328     1    2.968750000000    3.593750000000    0.192909466605    0.200000000000  -3.704063826652e-17   3.238478807507e-17   6.705979517938e-02
    143     1    4.531250000000    3.593750000000    0.192909466605    0.200000000000   1.302046573072e-16  -1.753555060569e-15   6.705979517938e-02
    259     1    0.312500000000    3.750000000000    0.192909466605    0.200000000000  -5.146917470207e-18   8.280173936150e-16   6.705979518324e-02
     24     1    1.562500000000    3.906250000000    0.192909466605    0.200000000000  -2.519716002625e-17  -1.414126791491e-16   6.705979518324e-02
    249     1    3.281250000000    3.906250000000    0.192909466605    0.200000000000  -3.475325978453e-17   1.399368689363e-16   6.705979514390e-02
    233     1    0.937500000000    4.062500000000    0.192909466605    0.200000000000  -9.194322020317e-17   2.017404279620e-16   6.705979517915e-02
    223     1    2.031250000000    4.218750000000    0.192909466605    0.200000000000  -2.827211033953e-16  -9.210678472460e-16   6.705979518324e-02
    134     1    2.656250000000    4.218750000000    0.192909466605    0.200000000000   6.118983903209e-17  -9.142498962457e-18   6.705979518324e-02
    164     1    4.062500000000    4.218750000000    0.192909466605    0.200000000000  -1.660506947106e-16  -3.789276730752e-16   6.705979517938e-02
    107     1    4.531250000000    4.218750000000    0.192909466605    0.200000000000  -2.040260061910e-17  -5.055226890738e-16   6.705979518335e-02
     46     1    0.937500000000    4.531250000000    0.192909466605    0.200000000000  -1.670569304097e-15  -1.970256340180e-16   6.705979518324e-02
    117     1    3.281250000000    4.531250000000    0.192909466605    0.200000000000   1.119827219264e-16  -1.159685710800e-16   6.705979518347e-02
    131     1    2.343750000000    4.687500000000    0.192909466605    0.200000000000   1.125455446536e-16  -8.902329319015e-17   6.705979518335e-02
    220     1    4.062500000000    4.687500000000    0.192909466605    0.200000000000  -3.772939666461e-17  -8.176505176416e-17   6.705979518335e-02
    232     1    4.687500000000    4.687500000000    0.192909466605    0.200000000000  -3.610197568460e-17  -7.071959821888e-17   6.705979518324e-02
  45165     3    0.078125000000    0.234375000000    0.446125000000    0.078125000000   0.000000000000e+00   0.000000000000e+00   0.000000000000e+00
  45134     3    0.234375000000    0.078125000000    0.446125000000    0.078125000000   0.000000000000e+00   0.000000000000e+00   0.000000000000e+00
  45133     3    0.078125000000    0.078125000000    0.446125000000    0.078125000000   0.000000000000e+00   0.000000000000e+00   0.000000000000e+00
  45166     3    0.234375000000    0.234375000000    0.446125000000    0.078125000000   0.000000000000e+00   0.000000000000e+00   0.000000000000e+00
  45135     3    0.390625000000    0.078125000000    0.446125000000    0.078125000000   0.000000000000e+00   0.000000000000e+00   0.000000000000e+00
  45136     3    0.546875000000    0.078125000000    0.446125000000    0.078125000000   0.000000000000e+00   0.000000000000e+00   0.000000000000e+00
  45167     3    0.390625000000    0.234375000000    0.446125000000    0.078125000000   0.000000000000e+00   0.000000000000e+00   0.000000000000e+00
  45168     3    0.546875000000    0.234375000000    0.446125000000    0.078125000000   0.000000000000e+00   0.000000000000e+00   0.000000000000e+00
  45170     3    0.859375000000    0.234375000000    0.446125000000    0.078125000000   0.000000000000e+00   0.000000000000e+00   0.000000000000e+00
  45137     3    0.703125000000    0.078125000000    0.446125000000    0.078125000000   0.000000000000e+00   0.000000000000e+00   0.000000000000e+00
  45138     3    0.859375000000    0.078125000000    0.446125000000    0.078125000000   0.000000000000e+00   0.000000000000e+00   0.000000000000e+00
  45169     3    0.703125000000    0.234375000000    0.446125000000    0.078125000000   0.000000000000e+00   0.000000000000e+00   0.000000000000e+00
  45139     3    1.015625000000    0.078125000000    0.446125000000    0.078125000000   0.000000000000e+00   0.000000000000e+00   0.000000000000e+00
  45172     3    1.171875000000    0.234375000000    0.446125000000    0.078125000000   0.000000000000e+00   0.000000000000e+00   0.000000000000e+00
  45140     3    1.171875000000    0.078125000000    0.446125000000    0.078125000000   0.000000000000e+00   0.000000000000e+00   0.000000000000e+00
  45171     3    1.015625000000    0.234375000000    0.446125000000    0.078125000000   0.000000000000e+00   0.000000000000e+00   0.000000000000e+00
  45141     3    1.328125000000    0.078125000000    0.446125000000    0.078125000000   0.000000000000e+00   0.000000000000e+00   0.000000000000e+00
  45174     3    1.484375000000    0.234375000000    0.446125000000    0.078125000000   0.000000000000e+00   0.000000000000e+00   0.000000000000e+00
  45173     3    1.328125000000    0.234375000000    0.446125000000    0.078125000000   0.000000000000e+00   0.000000000000e+00   0.000000000000e+00
  45142     3    1.484375000000    0.078125000000    0.446125000000    0.078125000000   0.000000000000e+00   0.000000000000e+00   0.000000000000e+00
  45176     3    1.796875000000    0.234375000000    0.446125000000    0.078125000000   2.504114760326e+02   1.214677217856e+02   8.295240483459e+02
  45175     3    1.640625000000    0.234375000000    0.446125000000    0.078125000000  -2.504114760326e+02   1.214677217856e+02   8.295240483459e+02
  45144     3    1.796875000000    0.078125000000    0.446125000000    0.078125000000   0.000000000000e+00   0.000000000000e+00   0.000000000000e+00
  45143     3    1.640625000000    0.078125000000    0.446125000000    0.078125000000   0.000000000000e+00   0.000000000000e+00   0.000000000000e+00
  45178     3    2.109375000000    0.234375000000    0.446125000000    0.078125000000  -5.354321545592e+01  -5.354321545592e+01   1.735420654260e+02
  45146     3    2.109375000000    0.078125000000    0.446125000000    0.078125000000   0.000000000000e+00   0.000000000000e+00   0.000000000000e+00
  45177     3    1.953125000000    0.234375000000    0.446125000000    0.078125000000   0.000000000000e+00   0.000000000000e+00   0.000000000000e+00
  45145     3    1.953125000000    0.078125000000    0.446125000000    0.078125000000   0.000000000000e+00   0.000000000000e+00   0.000000000000e+00
  45148     3    2.421875000000    0.078125000000    0.446125000000    0.078125000000   0.000000000000e+00   0.000000000000e+00   0.000000000000e+00
  45147     3    2.265625000000    0.078125000000    0.446125000000    0.078125000000   0.000000000000e+00   0.000000000000e+00   0.000000000000e+00
  45179     3    2.265625000000    0.234375000000    0.446125000000    0.078125000000   5.354321545592e+01  -5.354321545592e+01   1.735420654260e+02
  45180     3    2.421875000000    0.234375000000    0.446125000000    0.078125000000   0.000000000000e+00   0.000000000000e+00   0.000000000000e+00
  45150     3    2.734375000000    0.078125000000    0.446125000000    0.078125000000   0.000000000000e+00   0.000000000000e+00   0.000000000000e+00
  45181     3    2.578125000000    0.234375000000    0.446125000000    0.078125000000   0.000000000000e+00   0.000000000000e+00   0.000000000000e+00
  45149     3    2.578125000000    0.078125000000    0.446125000000    0.078125000000   0.000000000000e+00   0.000000000000e+00   0.000000000000e+00
  45182     3    2.734375000000    0.234375000000    0.446125000000    0.078125000000   0.000000000000e+00   0.000000000000e+00   0.000000000000e+00
  45183     3    2.890625000000    0.234375000000    0.446125000000    0.078125000000   0.000000000000e+00   0.000000000000e+00   0.000000000000e+00
  45152     3    3.046875000000    0.078125000000    0.446125000000    0.078125000000   0.000000000000e+00   0.000000000000e+00   0.000000000000e+00
  45151     3    2.890625000000    0.078125000000    0.446125000000    0.078125000000   0.000000000000e+00   0.000000000000e+00   0.000000000000e+00
  45184     3    3.046875000000    0.234375000000    0.446125000000    0.078125000000   0.000000000000e+00   0.000000000000e+00   0.000000000000e+00
  45185     3    3.203125000000    0.234375000000    0.446125000000    0.078125000000   0.000000000000e+00   0.000000000000e+00   0.000000000000e+00
  45153     3    3.203125000000    0.078125000000    0.446125000000    0.078125000000   0.000000000000e+00   0.000000000000e+00   0.000000000000e+00
  45154     3    3.359375000000    0.078125000000    0.446125000000    0.078125000000   0.000000000000e+00   0.000000000000e+00   0.000000000000e+00
  45186     3    3.359375000000    0.234375000000    0.446125000000    0.078125000000   0.000000000000e+00   0.000000000000e+00   0.000000000000e+00
  45155     3    3.515625000000    0.078125000000    0.446125000000    0.078125000000   0.000000000000e+00   0.000000000000e+00   0.000000000000e+00
  45156     3    3.671875000000    0.078125000000    0.446125000000    0.078125000000   0.000000000000e+00   0.000000000000e+00   0.000000000000e+00
  45188     3    3.671875000000    0.234375000000    0.446125000000    0.078125000000  -5.354321545592e+01  -5.354321545592e+01   1.735420654260e+02
  45187     3    3.515625000000    0.234375000000    0.446125000000    0.078125000000   0.000000000000e+00   0.000000000000e+00   0.000000000000e+00
  45189     3    3.828125000000    0.234375000000    0.446125000000    0.078125000000   5.354321545592e+01  -5.354321545592e+01   1.735420654260e+02
  45158     3    3.984375000000    0.078125000000    0.446125000000    0.078125000000   0.000000000000e+00   0.000000000000e+00   0.000000000000e+00
  45190     3    3.984375000000    0.234375000000    0.446125000000    0.078125000000   0.000000000000e+00   0.000000000000e+00   0.000000000000e+00
  45157     3    3.828125000000    0.078125000000    0.446125000000    0.078125000000   0.000000000000e+00   0.000000000000e+00   0.000000000000e+00
  45160     3    4.296875000000    0.078125000000    0.446125000000    0.078125000000   0.000000000000e+00   0.000000000000e+00   0.000000000000e+00
  45191     3    4.140625000000    0.234375000000    0.446125000000    0.078125000000   0.000000000000e+00   0.000000000000e+00   0.000000000000e+00
  45192     3    4.296875000000    0.234375000000    0.446125000000    0.078125000000   0.000000000000e+00   0.000000000000e+00   0.000000000000e+00
  45159     3    4.140625000000    0.078125000000    0.446125000000    0.078125000000   0.000000000000e+00   0.000000000000e+00   0.000000000000e+00
  45194     3    4.609375000000    0.234375000000    0.446125000000    0.078125000000   0.000000000000e+00   0.000000000000e+00   0.000000000000e+00
  45161     3    4.453125000000    0.078125000000    0.446125000000    0.078125000000   0.000000000000e+00   0.000000000000e+00   0.000000000000e+00
  45162     3    4.609375000000    0.078125000000    0.446125000000    0.078125000000   0.000000000000e+00   0.000000000000e+00   0.000000000000e+00
  45193     3    4.453125000000    0.234375000000    0.446125000000    0.078125000000   0.000000000000e+00   0.000000000000e+00   0.000000000000e+00
  45195     3    4.765625000000    0.234375000000    0.446125000000    0.078125000000   0.000000000000e+00   0.000000000000e+00   0.000000000000e+00
  45196     3    4.921875000000    0.234375000000    0.446125000000    0.078125000000   0.000000000000e+00   0.000000000000e+00   0.000000000000e+00
  45163     3    4.765625000000    0.078125000000    0.446125000000    0.078125000000   0.000000000000e+00   0.000000000000e+00   0.000000000000e+00
  45164     3    4.921875000000    0.078125000000    0.446125000000    0.078125000000   0.000000000000e+00   0.000000000000e+00   0.000000000000e+00
  45197     3    0.078125000000    0.390625000000    0.446125000000    0.078125000000   0.000000000000e+00   0.000000000000e+00   0.000000000000e+00
  45229     3    0.078125000000    0.546875000000    0.446125000000    0.078125000000   0.000000000000e+00   0.000000000000e+00   0.000000000000e+00
  45230     3    0.234375000000    0.546875000000    0.446125000000    0.078125000000   0.000000000000e+00   0.000000000000e+00   0.000000000000e+00
  45198     3    0.234375000000    0.390625000000    0.446125000000    0.078125000000   0.000000000000e+00   0.000000000000e+00   0.000000000000e+00
  45231     3    0.390625000000    0.546875000000    0.446125000000    0.078125000000   0.000000000000e+00   0.000000000000e+00   0.000000000000e+00
  45232     3    0.546875000000    0.546875000000    0.446125000000    0.078125000000  -5.354321545592e+01   5.354321545592e+01   1.735420654260e+02
  45200     3    0.546875000000    0.390625000000    0.446125000000    0.078125000000  -5.354321545592e+01  -5.354321545592e+01   1.735420654260e+02
  45199     3    0.390625000000    0.390625000000    0.446125000000    0.078125000000   0.000000000000e+00   0.000000000000e+00   0.000000000000e+00
  45234     3    0.859375000000    0.546875000000    0.446125000000    0.078125000000   0.000000000000e+00   0.000000000000e+00   0.000000000000e+00
  45201     3    0.703125000000    0.390625000000    0.446125000000    0.078125000000   5.354321545592e+01  -5.354321545592e+01   1.735420654260e+02
  45202     3    0.859375000000    0.390625000000    0.446125000000    0.078125000000   0.000000000000e+00   0.000000000000e+00   0.000000000000e+00
  45233     3    0.703125000000    0.546875000000    0.446125000000    0.078125000000   5.354321545592e+01   5.354321545592e+01   1.735420654260e+02
  45235     3    1.015625000000    0.546875000000    0.446125000000    0.078125000000   0.000000000000e+00   0.000000000000e+00   0.000000000000e+00
  45236     3    1.171875000000    0.546875000000    0.446125000000    0.078125000000   0.000000000000e+00   0.000000000000e+00   0.000000000000e+00
  45204     3    1.171875000000    0.390625000000    0.446125000000    0.078125000000   0.000000000000e+00   0.000000000000e+00   0.000000000000e+00
  45203     3    1.015625000000    0.390625000000    0.446125000000    0.078125000000   0.000000000000e+00   0.000000000000e+00   0.000000000000e+00
  45205     3    1.328125000000    0.390625000000    0.446125000000    0.078125000000  -5.354321545592e+01  -5.354321545592e+01   1.735420654260e+02
  45206     3    1.484375000000    0.390625000000    0.446125000000    0.078125000000   5.354321545592e+01  -5.354321545592e+01   1.735420654260e+02
  45237     3    1.328125000000    0.546875000000    0.446125000000    0.078125000000  -5.354321545592e+01   5.354321545592e+01   1.735420654260e+02
  45238     3    1.484375000000    0.546875000000    0.446125000000    0.078125000000   5.354321545592e+01   5.354321545592e+01   1.735420654260e+02
  45240     3    1.796875000000    0.546875000000    0.446125000000    0.078125000000   0.000000000000e+00   0.000000000000e+00   0.000000000000e+00
  45208     3    1.796875000000    0.390625000000    0.446125000000    0.078125000000   0.000000000000e+00   0.000000000000e+00   0.000000000000e+00
  45239     3    1.640625000000    0.546875000000    0.446125000000    0.078125000000   0.000000000000e+00   0.000000000000e+00   0.000000000000e+00
  45207     3    1.640625000000    0.390625000000    0.446125000000    0.078125000000   0.000000000000e+00   0.000000000000e+00   0.000000000000e+00
  45241     3    1.953125000000    0.546875000000    0.446125000000    0.078125000000   0.000000000000e+00   0.000000000000e+00   0.000000000000e+00
  45209     3    1.953125000000    0.390625000000    0.446125000000    0.078125000000   0.000000000000e+00   0.000000000000e+00   0.000000000000e+00
  45210     3    2.109375000000    0.390625000000    0.446125000000    0.078125000000  -5.354321545592e+01   5.354321545592e+01   1.735420654260e+02
  45242     3    2.109375000000    0.546875000000    0.446125000000    0.078125000000   0.000000000000e+00   0.000000000000e+00   0.000000000000e+00
  45244     3    2.421875000000    0.546875000000    0.446125000000    0.078125000000   0.000000000000e+00   0.000000000000e+00   0.000000000000e+00
  45243     3    2.265625000000    0.546875000000    0.446125000000    0.078125000000   0.000000000000e+00   0.000000000000e+00   0.000000000000e+00
  45211     3    2.265625000000    0.390625000000    0.446125000000    0.078125000000   5.354321545592e+01   5.354321545592e+01   1.735420654260e+02
  45212     3    2.421875000000    0.390625000000    0.446125000000    0.078125000000   0.000000000000e+00   0.000000000000e+00   0.000000000000e+00
  45213     3    2.578125000000    0.390625000000    0.446125000000    0.078125000000   0.000000000000e+00   0.000000000000e+00   0.000000000000e+00
  45214     3    2.734375000000    0.390625000000    0.446125000000    0.078125000000   0.000000000000e+00   0.000000000000e+00   0.000000000000e+00
  45245     3    2.578125000000    0.546875000000    0.446125000000    0.078125000000   0.000000000000e+00   0.000000000000e+00   0.000000000000e+00
  45246     3    2.734375000000    0.546875000000    0.446125000000    0.078125000000   0.000000000000e+00   0.000000000000e+00   0.000000000000e+00
  45215     3    2.890625000000    0.390625000000    0.446125000000    0.078125000000  -5.354321545592e+01  -5.354321545592e+01   1.735420654260e+02
  45216     3    3.046875000000    0.390625000000    0.446125000000    0.078125000000   5.354321545592e+01  -5.354321545592e+01   1.735420654260e+02
  45247     3    2.890625000000    0.546875000000    0.446125000000    0.078125000000  -5.354321545592e+01   5.354321545592e+01   1.735420654260e+02
  45248     3    3.046875000000    0.546875000000    0.446125000000    0.078125000000   5.354321545592e+01   5.354321545592e+01   1.735420654260e+02
  45217     3    3.203125000000    0.390625000000    0.446125000000    0.078125000000   0.000000000000e+00   0.000000000000e+00   0.000000000000e+00
  45218     3    3.359375000000    0.390625000000    0.446125000000    0.078125000000   0.000000000000e+00   0.000000000000e+00   0.000000000000e+00
  45249     3    3.203125000000    0.546875000000    0.446125000000    0.078125000000   0.000000000000e+00   0.000000000000e+00   0.000000000000e+00
  45250     3    3.359375000000    0.546875000000    0.446125000000    0.078125000000   0.000000000000e+00   0.000000000000e+00   0.000000000000e+00
  45252     3    3.671875000000    0.546875000000    0.446125000000    0.078125000000   0.000000000000e+00   0.000000000000e+00   0.000000000000e+00
  45219     3    3.515625000000    0.390625000000    0.446125000000    0.078125000000   0.000000000000e+00   0.000000000000e+00   0.000000000000e+00
  45220     3    3.671875000000    0.390625000000    0.446125000000    0.078125000000  -5.354321545592e+01   5.354321545592e+01   1.735420654260e+02
  45251     3    3.515625000000    0.546875000000    0.446125000000    0.078125000000   0.000000000000e+00   0.000000000000e+00   0.000000000000e+00
  45253     3    3.828125000000    0.546875000000    0.446125000000    0.078125000000   0.000000000000e+00   0.000000000000e+00   0.000000000000e+00
  45221     3    3.828125000000    0.390625000000    0.446125000000    0.078125000000   5.354321545592e+01   5.354321545592e+01   1.735420654260e+02
  45254     3    3.984375000000    0.546875000000    0.446125000000    0.078125000000   0.000000000000e+00   0.000000000000e+00   0.000000000000e+00
  45222     3    3.984375000000    0.390625000000    0.446125000000    0.078125000000   0.000000000000e+00   0.000000000000e+00   0.000000000000e+00
  45223     3    4.140625000000    0.390625000000    0.446125000000    0.078125000000   0.000000000000e+00   0.000000000000e+00   0.000000000000e+00
  45224     3    4.296875000000    0.390625000000    0.446125000000    0.078125000000   0.000000000000e+00   0.000000000000e+00   0.000000000000e+00
  45255     3    4.140625000000    0.546875000000    0.446125000000    0.078125000000   0.000000000000e+00   0.000000000000e+00   0.000000000000e+00
  45256     3    4.296875000000    0.546875000000    0.446125000000    0.078125000000   0.000000000000e+00   0.000000000000e+00   0.000000000000e+00
  45225     3    4.453125000000    0.390625000000    0.446125000000    0.078125000000   0.000000000000e+00   0.000000000000e+00   0.000000000000e+00
  45226     3    4.609375000000    0.390625000000    0.446125000000    0.078125000000  -5.354321545592e+01  -5.354321545592e+01   1.735420654260e+02
  45258     3    4.609375000000    0.546875000000    0.446125000000    0.078125000000  -5.354321545592e+01   5.354321545592e+01   1.735420654260e+02
  45257     3    4.453125000000    0.546875000000    0.446125000000    0.078125000000   0.000000000000e+00   0.000000000000e+00   0.000000000000e+00
  45227     3    4.765625000000    0.390625000000    0.446125000000    0.078125000000   5.354321545592e+01  -5.354321545592e+01   1.735420654260e+02
  45228     3    4.921875000000    0.390625000000    0.446125000000    0.078125000000   0.000000000000e+00   0.000000000000e+00   0.000000000000e+00
  45260     3    4.921875000000    0.546875000000    0.446125000000    0.078125000000   0.000000000000e+00   0.000000000000e+00   0.000000000000e+00
  45259     3    4.765625000000    0.546875000000    0.446125000000    0.078125000000   5.354321545592e+01   5.354321545592e+01   1.735420654260e+02
  45261     3    0.078125000000    0.703125000000    0.446125000000    0.078125000000   0.000000000000e+00   0.000000000000e+00   0.000000000000e+00
  45294     3    0.234375000000    0.859375000000    0.446125000000    0.078125000000  -5.354321545592e+01   5.354321545592e+01   1.735420654260e+02
  45262     3    0.234375000000    0.703125000000    0.446125000000    0.078125000000  -5.354321545592e+01  -5.354321545592e+01   1.735420654260e+02
  45293     3    0.078125000000    0.859375000000    0.446125000000    0.078125000000   0.000000000000e+00   0.000000000000e+00   0.000000000000e+00
  45263     3    0.390625000000    0.703125000000    0.446125000000    0.078125000000   5.354321545592e+01  -5.354321545592e+01   1.735420654260e+02
  45296     3    0.546875000000    0.859375000000    0.446125000000    0.078125000000   0.000000000000e+00   0.000000000000e+00   0.000000000000e+00
  45295     3    0.390625000000    0.859375000000    0.446125000000    0.078125000000   5.354321545592e+01   5.354321545592e+01   1.735420654260e+02
  45264     3    0.546875000000    0.703125000000    0.446125000000    0.078125000000   0.000000000000e+00   0.000000000000e+00   0.000000000000e+00
  45297     3    0.703125000000    0.859375000000    0.446125000000    0.078125000000   0.000000000000e+00   0.000000000000e+00   0.000000000000e+00
  45298     3    0.859375000000    0.859375000000    0.446125000000    0.078125000000   0.000000000000e+00   0.000000000000e+00   0.000000000000e+00
  45265     3    0.703125000000    0.703125000000    0.446125000000    0.078125000000   0.000000000000e+00   0.000000000000e+00   0.000000000000e+00