LAMMPS data file

  8296  atoms

   3 atom types

  0.0000000000000000000  50.0000000000000000000 xlo xhi
  0.0000000000000000000  50.0000000000000000000 ylo yhi
  0.0000000000000000000 100.8333333333333285964 zlo zhi

Atoms # sphere

    1    1  5.94828  4.85000    6.202323894301855   36.684931721768756   27.497570589149582
    2    1  4.81034  4.85000   39.929499871541857   22.426717817479542   58.932028977028175
    3    1  4.81034  4.85000   32.451880916889301    7.384302800901393   46.373751630026646
    4    1  4.81034  4.85000    2.713851704357942   42.003914426702956   93.246690411281520
    5    1  4.70690  4.85000    5.195142405418183   11.893964350233620    2.673233081173863
    6    1  4.70690  4.85000   16.559802246583882   18.907938757269353   48.054880974969251
    7    1  4.70690  4.85000   11.381062444905579   39.520683877278245   49.172617519237455
    8    1  4.70690  4.85000   11.996991759403134    5.667179458222483   14.576881446124970
    9    1  4.70690  4.85000   34.739751448093649   29.118922272806966   38.649864049544149
   10    1  4.70690  4.85000   33.141980296397278   34.149469023863254   57.568236002252320
   11    1  4.70690  4.85000   42.806224900989143   32.741756897319668   96.815959647167858
   12    1  4.70690  4.85000    6.341040162236936   28.664489863020240   42.676178692968953
   13    1  4.70690  4.85000   26.129737645944466   24.193247240092521   17.697950825786982
   14    1  4.70690  4.85000   16.612854711885152   34.503756460378000   21.021263178845672
   15    1  4.70690  4.85000    5.227580268024209   15.245404992929425   55.762570061537119
   16    1  4.70690  4.85000   19.269045546614034    7.268601044127674   69.699539982225460
   17    1  4.70690  4.85000   30.833532797789452    5.570641976799259    5.190927055341708
   18    1  4.70690  4.85000   22.325908334179132    7.072189124515813   27.465681483594356
   19    1  4.70690  4.85000   31.034466820257553   19.763691940172038   36.777765641497659
   20    1  4.70690  4.85000    3.545354234876860   26.932734221947491   50.696235923243172
   21    1  4.70690  4.85000   28.822944858339294   14.968435367575404   96.622575723611746
   22    1  4.70690  4.85000   34.666470603478245    3.916812844584039   42.291997345677366
   23    1  4.70690  4.85000   10.044342174988600   42.387090387231630    5.007718749027071
   24    1  4.70690  4.85000   23.938129004171550   11.919807515485608   28.774969225989576
   25    1  4.70690  4.85000   17.476997094479572    7.583885707642711   75.300251956682814
   26    1  4.70690  4.85000   46.098589010721852   11.480587015544833   37.468760284833891
   27    1  4.70690  4.85000    3.487217532898719   19.997652325394689   60.867099244126265
   28    1  4.70690  4.85000    2.497230346026889    7.826883747323858   74.059319134264143
   29    1  4.70690  4.85000   10.416116373835054   45.540942872216235   90.300079802936693
   30    1  4.70690  4.85000   37.683642998287709   24.915057817477596   38.893850101274118
   31    1  4.70690  4.85000   41.376302069079209    2.459365838599755   65.446418941738344
   32    1  4.70690  4.85000    8.126006294832942   20.488066730342673   68.805157807042320
   33    1  4.70690  4.85000   23.789077711296642   14.782130124256417   46.258394355140112
   34    1  4.70690  4.85000   17.822028217225398   41.798513505770167   78.556297624803250
   35    1  4.70690  4.85000   11.297004014681812   17.803806149029334   31.008823510307860
   36    1  4.70690  4.85000   34.244823103187194   18.288141221911658   78.379405429206898
   37    1  4.70690  4.85000   17.543357133749591   28.979200528625302   95.527887107850802
   38    1  4.60345  4.85000   17.317829374283932   17.549776655627500   81.775342464215740
   39    1  4.60345  4.85000   45.114740978954828   12.929056702292261   19.336343149951091
   40    1  4.60345  4.85000    6.396571203434261    3.561013103590240   20.563205270857285
   41    1  4.60345  4.85000    7.076610918023240   29.097770376535060   88.947975213319054
   42    1  4.60345  4.85000   25.730319200851504    5.145780984386933   13.151799543899106
   43    1  4.60345  4.85000   32.930414979596357   12.799710949025581   28.642189575013283
   44    1  4.60345  4.85000   29.506560382107335   47.548353252751710   72.176869211560430
   45    1  4.60345  4.85000   10.746980303133910   14.511715959360828   89.737382852592475
   46    1  4.60345  4.85000    9.462629805816286    5.057511553482368   53.273551214110192
   47    1  4.60345  4.85000    4.501514901200642    6.405207376893562   30.518812134343207
   48    1  4.60345  4.85000   38.650250056541623   12.788737201779483   44.943296038285894
   49    1  4.60345  4.85000   26.353073484603534    3.009453871362658    6.456563533452445
   50    1  4.60345  4.85000    3.254815078621922   37.837915965784426   67.625032105323811
   51    1  4.60345  4.85000   45.240304635222159   45.273312301011309    7.070491338465224
   52    1  4.60345  4.85000   22.204339769808470   28.868990167931500   88.908013634540765
   53    1  4.60345  4.85000   35.751539737562112   37.557313050997678   74.823637940670395
   54    1  4.60345  4.85000   47.424113510876090   41.841371749383882   59.815207571803704
   55    1  4.60345  4.85000    6.936613236958377    6.242466410275989   80.351872126565098
   56    1  4.60345  4.85000   31.203463614895558   47.576803119648901    4.114733885578148
   57    1  4.60345  4.85000   29.624523660093399   34.046720010169167   51.395165052513740
   58    1  4.60345  4.85000   26.422881751371261    6.794515937621569   59.393733183724741
   59    1  4.60345  4.85000    8.907610364419702   13.992694813132744   70.851412205458260
   60    1  4.60345  4.85000   23.535823053046602   43.987502137509203   47.794424082645151
   61    1  4.60345  4.85000   15.424949075721901   22.414577207271027   23.885305121051069
   62    1  4.60345  4.85000   33.339079471461545   38.220697880517676   20.668800248773906
   63    1  4.60345  4.85000    4.008147242683250   26.467517157341543   84.978350402248225
   64    1  4.60345  4.85000   22.269818436153894   28.614454699148109    9.771977840022714
   65    1  4.60345  4.85000   28.392314477462278   40.536665552971748   46.301465331955882
   66    1  4.60345  4.85000   37.738649045953572   23.563348349146281   27.473242089579728
   67    1  4.60345  4.85000   47.065134037421942   16.616860023383442   58.545971305008429
   68    1  4.60345  4.85000   33.828802695015753   46.031943219338821   41.398463575197518
   69    1  4.60345  4.85000   34.759460516057828   41.448728728818686   77.891792655437982
   70    1  4.60345  4.85000   19.022492240821453   29.236631316631424   70.531314304599562
   71    1  4.60345  4.85000   23.645934970104104   29.398159581696028   55.531281690711815
   72    1  4.60345  4.85000   34.575271116357037   37.596873420328947   15.452005583083512
   73    1  4.60345  4.85000   31.765040552983852   45.514770561602703   16.909886392556729
   74    1  4.60345  4.85000   33.169360517835536   29.748040215461259   94.194461799265866
   75    1  4.60345  4.85000   43.771535131720889   35.047353082339086   20.520649108965817
   76    1  4.60345  4.85000   40.480382012262993   42.677876224372177   16.294505311600503
   77    1  4.60345  4.85000   14.854316211213401   25.265397040073946   11.387019361091184
   78    1  4.60345  4.85000    8.682934066016724   45.118384686522738   96.635601201852197
   79    1  4.60345  4.85000   26.201570467461654   16.535942631316107   52.826853323325864
   80    1  4.60345  4.85000    6.101643496652065    5.554138567130494   90.072971196696784
   81    1  4.60345  4.85000   30.727278176305262    6.951239427802532   88.722982435633853
   82    1  4.60345  4.85000   42.843701190470171   34.494665702881953   73.731622847290765
   83    1  4.60345  4.85000   20.017062395053955   38.640645744850971   86.307105429502954
   84    1  4.60345  4.85000   44.935787336382710   39.678964889074422   85.179428181208692
   85    1  4.60345  4.85000   23.070604815537703   23.462876653564429   29.642168370347939
   86    1  4.60345  4.85000   22.828711808551827   43.963046652058800   14.508829035965292
   87    1  4.60345  4.85000   18.301565383650260   20.664387441665745   17.046911614632663
   88    1  4.60345  4.85000   31.171364212002800   39.234587694809818    9.130042416118034
   89    1  4.60345  4.85000   11.188524404699844   39.015872145370132   92.123525052763185
   90    1  4.60345  4.85000   46.949516959549143   37.202571189824376   61.498272776618421
   91    1  4.60345  4.85000   10.424487803249029    9.745854333319215   11.658404274151700
   92    1  4.60345  4.85000   34.871832400957409   40.490559428748831   32.558979042349740
   93    1  4.60345  4.85000   12.852524280342216   26.733827126268544   39.904714215421023
   94    1  4.60345  4.85000   22.329339149360901   18.595922121332208   41.609750283337767
   95    1  4.60345  4.85000   16.174552130052561    5.829257753640237   17.936638007543870
   96    1  4.60345  4.85000   14.117861342436690   45.670441491310228   45.089836350439491
   97    1  4.60345  4.85000   34.133944255652032   45.002453652696971   72.413464781146345
   98    1  4.60345  4.85000   46.683839285074605    6.996171825682444   90.711000545260589
   99    1  4.60345  4.85000   40.067131084365137   23.927401863265899   66.134953518520945
  100    1  4.60345  4.85000   12.308443511634884   14.353853760264627    5.657940220830183
  101    1  4.60345  4.85000   10.582305889605383   28.800773069568972   71.888805102791693
  102    1  4.60345  4.85000    4.330237179374623   13.081572572914439    9.799267767940108
  103    1  4.60345  4.85000   41.556597323335630   43.802284601724502   95.654640494935080
  104    1  4.60345  4.85000   10.637116708217970   27.047938429256956   45.265538565966402
  105    1  4.60345  4.85000   41.942154826244163   18.962336126704766   44.291034723013361
  106    1  4.60345  4.85000   12.241932486352091   42.083246007980897   84.743867090792605
  107    1  4.60345  4.85000   30.573063794693564   28.068356625677424   55.781984857846126
  108    1  4.60345  4.85000   41.701908619564279   40.823301912378923   92.015808256607372
  109    1  4.60345  4.85000    8.736996205306021   15.741917111842167   12.647323622030257
  110    1  4.60345  4.85000    5.136700673589846   10.019761341002519   38.824123019257534
  111    1  4.60345  4.85000   16.747146542456498   18.969484189583159   53.237661851174650
  112    1  4.60345  4.85000   38.905147791464344   41.539692962604654   30.513021933201482
  113    1  4.60345  4.85000   12.139194891494515    3.048981705504267   25.676152445680163
  114    1  4.60345  4.85000   33.153727268821122    2.647093685147458   77.118835260393766
  115    1  4.60345  4.85000   30.534400571512400   13.011694251673497   70.997403671525433
  116    1  4.60345  4.85000   26.734916745070755   19.516580511661246   59.641803797631006
  117    1  4.60345  4.85000    4.620904326014902   34.971233159111215   87.089203164089895
  118    1  4.60345  4.85000    8.748928695459348    5.324505330686799   37.009509914366312
  119    1  4.60345  4.85000   30.772204868994120   19.445707029776383    4.374985520660712
  120    1  4.60345  4.85000   38.127874976973047   35.300340605177873   78.127551276615165
  121    1  4.60345  4.85000   33.457529705417059   33.210060896337751   28.722218075380013
  122    1  4.60345  4.85000   42.775141379513009   42.663470886483957   40.760226421594737
  123    1  4.60345  4.85000   42.103674990902825   45.841631112170667   71.995351612045326
  124    1  4.60345  4.85000   34.550263542721822   34.175910983603181    3.267586656387235
  125    1  4.60345  4.85000   39.185830550544487   17.540946910340086   52.785335756860079
  126    1  4.60345  4.85000   42.814403054466887    7.560229719924850   29.697639394877932
  127    1  4.60345  4.85000   10.271662468554474   19.879308265869277   45.335946153017325
  128    1  4.60345  4.85000   44.973125992024819   39.536571661020268   13.678717491633915
  129    1  4.60345  4.85000   35.109064202427270    6.428018305596642   24.911510174729706
  130    1  4.60345  4.85000   11.106347262369823   40.549346715723729   74.600515511068465
  131    1  4.60345  4.85000   45.629151208509555   27.242394022016963    3.110175186265381
  132    1  4.60345  4.85000   23.943925074510030   25.885823864944303   65.272630516235608
  133    1  4.60345  4.85000   31.095307898951241   27.633268060835984   80.343894962876334
  134    1  4.60345  4.85000   38.168380643477605   47.181399962884349   74.044286633319416
  135    1  4.60345  4.85000   25.277297536828421   43.241027091448039    8.655483846589842
  136    1  4.60345  4.85000   18.793655613117497    6.183610843425051   51.684877869686709
  137    1  4.60345  4.85000   32.710582874498400   35.143630032464571   79.655599957676529
  138    1  4.60345  4.85000   37.879197239802451   12.595479160936986   50.937693176837783
  139    1  4.60345  4.85000   24.916425104461798   33.518039291698607   22.394839557996505
  140    1  4.60345  4.85000   40.629332888891973   19.097076379513673   92.130772260932574
  141    1  4.60345  4.85000   37.316134868436350    9.897602521225116   66.133436853245399
  142    1  4.60345  4.85000   31.163840503360650    4.450100435977870   60.330619223837182
  143    1  4.60345  4.85000    7.896022801618026   41.541149295468912   61.735328563119388
  144    1  4.60345  4.85000   34.564836720147724   33.711854464735922   41.206737413206227
  145    1  4.60345  4.85000   33.639657465438901   14.584013203168801   90.007422010713640
  146    1  4.60345  4.85000   39.702225473913302   12.243559070223352   96.860119103830257
  147    1  4.60345  4.85000   20.235877950725644    3.331245962919225   25.569309014137691
  148    1  4.60345  4.85000   43.884276237159199   10.160111280723255   52.058054400293173
  149    1  4.60345  4.85000   47.073373018041593   26.993732014725403   31.871020852989041
  150    1  4.60345  4.85000   23.100571438669867    7.667397917959913   50.999486084088801
  151    1  4.60345  4.85000   34.636443906772236   28.709868114654206   63.834275081818639
  152    1  4.60345  4.85000    7.806531966238573   10.165530721035569   50.250353892368757
  153    1  4.60345  4.85000   10.759143874224851   15.119078996622139   39.438570115067741
  154    1  4.60345  4.85000   24.772204504021843   11.246568599612530   38.334446248775720
  155    1  4.60345  4.85000   35.067614644680333    3.320957400996138   36.662669654037984
  156    1  4.60345  4.85000   16.332866923618656   42.019607230991753   11.338059735465386
  157    1  4.60345  4.85000    8.545633981381302   23.959954719112918   18.892583505415491
  158    1  4.60345  4.85000   46.693540742432603   14.079215926742101   93.722461977066089
  159    1  4.60345  4.85000   16.520459184881798   23.221856752259516   61.834486234942801
  160    1  4.60345  4.85000   37.131992801861131   36.181255075414789   68.308939965714458
  161    1  4.60345  4.85000   41.263361092008708   44.419163871352914   88.996041866357174
  162    1  4.60345  4.85000   16.970374629093143   44.145756120469208   63.032989219847863
  163    1  4.60345  4.85000   37.517632719443355   36.900462542321698    5.682967616494129
  164    1  4.60345  4.85000   32.954424039561438   12.424864306215635   49.501494138962016
  165    1  4.60345  4.85000   42.528824871804410   37.077410225294628   26.399518188879060
  166    1  4.60345  4.85000   26.557400748265490   39.304132955772566   92.849794626774454
  167    1  4.60345  4.85000    7.186350222376754   43.654283687663202   22.445710344579233
  168    1  4.60345  4.85000   31.148526751748925   38.745332092668576   66.335690760200180
  169    1  4.60345  4.85000    8.988702052749193   31.386817153903948   33.987726913954326
  170    1  4.60345  4.85000   22.759060238187310   27.557330836742253   35.782996631601854
  171    1  4.60345  4.85000   44.705272551592302   32.150742506321826   51.658162546658104
  172    1  4.60345  4.85000   10.640439311698294   18.938522313727201   91.762408151498079
  173    1  4.60345  4.85000   32.688374862992582   23.298084487623953   61.643492435510481
  174    1  4.60345  4.85000   25.462998217049925    2.534935272539641   29.618967218615474
  175    1  4.60345  4.85000   19.789941336486777   30.122937244240024    3.392637503004105
  176    1  4.60345  4.85000   10.409893857696311   34.612055581130655   70.130463170809932
  177    1  4.60345  4.85000   22.700975595641690   33.199594193825810   71.589614104612792
  178    1  4.50000  4.85000    7.565781503450525    2.914632981903131   83.824204711303508
  179    1  4.50000  4.85000   15.689839262042236   14.070901219751784   75.880056719790403
  180    1  4.50000  4.85000   38.423987771666603   25.062304215758708   75.854911831280987
  181    1  4.50000  4.85000   25.638484957395434   26.219806706228653   92.621269813953731
  182    1  4.50000  4.85000   23.128501481753588   40.465804288694329   21.452667310326451
  183    1  4.50000  4.85000   35.786059503120143   30.437874817948369   25.416042933497543
  184    1  4.50000  4.85000   34.803000308876321   16.583106731852794   84.408144724643947
  185    1  4.50000  4.85000   47.253129606209676   39.644150988273942   68.742523909143443
  186    1  4.50000  4.85000   36.323622723996422   46.932547712392982   34.493768996301085
  187    1  4.50000  4.85000   34.080880353269642   17.209478686789438   20.533314205922515
  188    1  4.50000  4.85000   42.319525588483238   45.445716254186813   21.841645123768039
  189    1  4.50000  4.85000   39.782984272806317   12.373760909798124   29.912037880967954
  190    1  4.50000  4.85000    7.272516898346359   33.355376571089195   93.978006414939642
  191    1  4.50000  4.85000    6.975988506632094   27.699247970052252    3.508409606417669
  192    1  4.50000  4.85000   46.041890866612093   41.004567796539398   53.354726759155298
  193    1  4.50000  4.85000   17.237261217078576    8.973910591826103   47.096639804190175
  194    1  4.50000  4.85000   20.267906221174535   35.988892507682969   13.241005657108726
  195    1  4.50000  4.85000   34.250675293537029   28.961128780220619   49.618899735868773
  196    1  4.50000  4.85000   46.475527089789374   20.654149533944185   80.475786405225747
  197    1  4.50000  4.85000   46.476568678214051   40.581549496890958   90.793841913422014
  198    1  4.50000  4.85000   31.508179649165864   23.163579894217293   39.855817679085696
  199    1  4.50000  4.85000   24.032874053685351   33.203245710886804   96.258461989922566
  200    1  4.50000  4.85000   47.484649307447221   29.877218603330252   57.238968768508734
  201    1  4.50000  4.85000   42.114499486780801   33.440843965216445   12.066683158105468
  202    1  4.50000  4.85000   26.076514470292320   42.766761320355151   55.762136634607408
  203    1  4.50000  4.85000   14.999601096320502   36.450831772119137   72.535396405011156
  204    1  4.50000  4.85000    6.446624658844993   37.672391549776400   19.797467453815759
  205    1  4.50000  4.85000   12.822289948303224   38.833931651440210   22.907405350309677
  206    1  4.50000  4.85000   34.442577754207605   17.537895900208653   65.920794770195300
  207    1  4.50000  4.85000   40.245909205451213   46.808887571235005   10.460445841263139
  208    1  4.50000  4.85000   21.436386907012814   32.046964271655554   77.613634713415863
  209    1  4.50000  4.85000   42.312248509198064    4.597211155916940   78.381933913633276
  210    1  4.50000  4.85000   47.671930419667866   37.443825088765571   44.642854815831043
  211    1  4.50000  4.85000   29.455794549124530   39.449646323255791   52.915067058828683
  212    1  4.50000  4.85000    3.655952402380929   47.151653655279361   63.430675611855307
  213    1  4.50000  4.85000   36.551865915982063   29.113555874879555   57.006737358023557
  214    1  4.50000  4.85000   37.185724853071285   10.435721847105699   77.493520163465860
  215    1  4.50000  4.85000   40.913490456490130   46.525690030034454   53.167293978172893
  216    1  4.50000  4.85000   14.123476841802614   23.852575924377820   45.619813808833214
  217    1  4.50000  4.85000   17.723514413826280   28.519297268668716   49.368609889650443
  218    1  4.50000  4.85000   20.343267574740111   42.833886164099489   94.596628375901034
  219    1  4.50000  4.85000   11.797101192168892    6.028242374974154   57.120263576111228
  220    1  4.50000  4.85000   11.195517640704265    3.027179205455652   94.258727870119017
  221    1  4.50000  4.85000    4.830652722593729   30.758662511533526   80.640235278942441
  222    1  4.50000  4.85000   37.300225622215628   30.157104192832300   89.296800262062362
  223    1  4.50000  4.85000   30.279884974726063   10.367310982699815   65.490633079365310
  224    1  4.50000  4.85000   47.709042761682667   22.026982403313959   37.862063929830512
  225    1  4.50000  4.85000   15.892231190986497   25.268449964232552   91.581866823635352
  226    1  4.50000  4.85000   20.227484716749707   46.206321949503518   52.349614151726328
  227    1  4.50000  4.85000   43.825023096174611   33.823432148534387   39.480530732161732
  228    1  4.50000  4.85000   29.120528550537937   30.235718570642163   28.822930888315380
  229    1  4.50000  4.85000   19.168237530755050   46.511542491854044   90.382012617606932
  230    1  4.50000  4.85000   41.637292943464665   47.603403301650630   38.244369537927980
  231    1  4.50000  4.85000   20.484011035149592    9.499982717988100   59.883644269815747
  232    1  4.50000  4.85000   12.986258754304568   23.593546318680346   66.366114316016294
  233    1  4.50000  4.85000   26.970510364591114    6.748330802476771   46.569859926576072
  234    1  4.50000  4.85000   42.179008813788876   20.098275252562871   62.394003612516492
  235    1  4.50000  4.85000    3.298085210577667   16.253879422596832   32.597437389563659
  236    1  4.50000  4.85000   28.732989843075618    2.649358718151178   41.842958391421803
  237    1  4.50000  4.85000   40.099489328819473   17.928181123524645   33.130340170885873
  238    1  4.50000  4.85000   25.851231531783196    5.785534956052854   82.750294918473642
  239    1  4.50000  4.85000   14.617491207394043   15.687595210904098    9.723441918202006
  240    1  4.50000  4.85000   21.492627832837140   20.688548586763396    3.922941951167303
  241    1  4.50000  4.85000   43.364636174605813   17.249479254535270   70.823522620027020
  242    1  4.50000  4.85000   39.428086936866436    5.245626293565746   55.567913670747011
  243    1  4.50000  4.85000   37.789826918885446   41.581825087736213    7.280294918913827
  244    1  4.50000  4.85000   36.831239370093201   23.642073150954339    4.485506161414938
  245    1  4.50000  4.85000   22.387093390910795   46.496385576090404   35.047564613735261
  246    1  4.50000  4.85000   32.677203600522567   22.412857974467720   19.913765124914207
  247    1  4.50000  4.85000    2.460732142407218   18.917915889210558   46.293964294063613
  248    1  4.50000  4.85000   31.658417121955789   33.672995362192225   96.634623297819644
  249    1  4.50000  4.85000    7.962046908749135   44.751711508336207    9.087278136183430
  250    1  4.50000  4.85000    5.067589816367478    5.533754173969042   15.547578201420063
  251    1  4.50000  4.85000   32.943906210195692   37.308157315457450   49.374607168732403
  252    1  4.50000  4.85000   12.274805609466970   37.011067544339696    3.744850153739159
  253    1  4.50000  4.85000   36.516688519405498   27.230368172432026    9.024367390188928
  254    1  4.50000  4.85000   30.259480739478064    3.526294002636035   80.577341091623978
  255    1  4.50000  4.85000   16.288169779274341   31.183666662985971    7.988615486752367
  256    1  4.50000  4.85000   12.161898484718604   45.475260734302537   37.887758068402960
  257    1  4.50000  4.85000   25.332850262142671   11.041036985019911   74.486796440812370
  258    1  4.50000  4.85000   35.551470184734526   42.465151414053601   52.076558159050904
  259    1  4.50000  4.85000    8.047010140149712   21.517687629259157   55.858491814145005
  260    1  4.50000  4.85000   23.965717909500071   17.028705848309052   90.528121953399236
  261    1  4.50000  4.85000   19.841208125901247   18.809861470163622   61.244076637138214
  262    1  4.50000  4.85000   14.094512886651335   21.626934285004388   37.481332898649207
  263    1  4.50000  4.85000   19.743010980038065   28.844213326568681   65.324043152508210
  264    1  4.50000  4.85000   25.468822277699072   18.481644788689444   11.414032636633795
  265    1  4.50000  4.85000    3.826584332477684   16.080542823255797   79.929497316175329
  266    1  4.50000  4.85000   37.161794452285292    6.660756690315966   15.652951697970485
  267    1  4.50000  4.85000   24.832603542188217   19.135269571817236   66.275990139084499
  268    1  4.50000  4.85000   32.661242010604639    8.346683916811575   53.050210684044458
  269    1  4.50000  4.85000   17.158326662877691   20.576913711429647   76.697787801395506
  270    1  4.50000  4.85000   16.746415378024501   41.082395532431626   29.682600792251655
  271    1  4.50000  4.85000   26.730448012664894   23.039514267006609   48.416540454850320
  272    1  4.50000  4.85000   15.929784208682495   29.479489723218375   73.977122110384883
  273    1  4.50000  4.85000   16.379388941789340   12.837128624785489   33.684454328798253
  274    1  4.50000  4.85000   24.172915095340148   31.997887861401182   62.132404039536368
  275    1  4.50000  4.85000   26.884809937676689   41.042211667761599   15.145561067320598
  276    1  4.50000  4.85000    4.713101444546471    9.292187373129437   60.384860461129023
  277    1  4.50000  4.85000   16.138194489843393   38.012536981154177   58.991818543939864
  278    1  4.50000  4.85000   18.275342485927780   41.775156835315563   47.359557398867409
  279    1  4.50000  4.85000   16.910338880360761   12.547848187315051   56.231148898678335
  280    1  4.50000  4.85000   47.336677514118257   19.957633126136987   95.215736306109505
  281    1  4.50000  4.85000   28.362101598302349    3.008012078801758   54.633593025829349
  282    1  4.50000  4.85000   16.351828769482513   10.792690435968632   79.931497922762418
  283    1  4.50000  4.85000   27.794446381425555   38.035041591448426   97.338286896011951
  284    1  4.50000  4.85000   10.321031087032928   35.171419160437082   60.264196290037148
  285    1  4.50000  4.85000   25.160756727871089   40.766804780938052   39.283141519297345
  286    1  4.50000  4.85000   16.430550952032519   32.297920290345559   39.460809103541038
  287    1  4.50000  4.85000   13.786585861817043   26.251260853834840   51.781810099578678
  288    1  4.50000  4.85000   14.396439413090997   47.309676314204552   22.964998209941349
  289    1  4.50000  4.85000   28.213520720577026    8.450849907110149   36.407747361289140
  290    1  4.50000  4.85000   33.183722593487531   14.719270463705429   43.150800630118518
  291    1  4.50000  4.85000   12.031811092294546   30.476130170219076   62.960629609009956
  292    1  4.50000  4.85000   29.516589647300030   46.104397341222473   32.776253611156505
  293    1  4.50000  4.85000   28.626779889593564    7.849398511885696   17.700547518804903
  294    1  4.50000  4.85000   45.642780218843448   36.532479675726272   36.084026207838257
  295    1  4.50000  4.85000   12.447163128821728   32.045856229359046   84.964332664465303
  296    1  4.50000  4.85000   42.531001055016119   30.606809737308350   84.239187974749839
  297    1  4.50000  4.85000   32.716166332569848   33.738077941421217   66.285840843938502
  298    1  4.50000  4.85000   46.096151975017520   24.519417220761614   14.060691185420049
  299    1  4.50000  4.85000    6.246618497653426   31.232636435912276    7.212735815664365
  300    1  4.50000  4.85000    5.040190307188022   15.354398552107373   65.188148640145045
  301    1  4.50000  4.85000   31.692084309122421   32.932023701419773   86.579236092471348
  302    1  4.50000  4.85000   20.080021831607066   43.378637643522062   70.490128029929053
  303    1  4.50000  4.85000   26.114416169545187   33.702271372501855    9.078944272868917
  304    1  4.50000  4.85000   44.744729175838422   14.651926751993889    2.555117429468871
  305    1  4.50000  4.85000   47.226868158307639   23.723539806649288   74.186731292589982
  306    1  4.50000  4.85000   31.227172024387624   14.328995339504861   17.718783755125543
  307    1  4.50000  4.85000   14.842147101667809    2.287810126219092   34.772150694157233
  308    1  4.50000  4.85000   46.454573854658499   20.660901337233618    5.373088358006446
  309    1  4.50000  4.85000   45.827232694570064   44.426275574062856   80.593858035226958
  310    1  4.50000  4.85000    8.096821862055350   43.627608083426317   76.832689563622608
  311    1  4.50000  4.85000   11.892240895259940   34.807515190771362   16.522869068718624
  312    1  4.50000  4.85000   39.363694921023779   19.396799112652580   22.995588677206765
  313    1  4.50000  4.85000   29.787530586555800    8.359893373924216   81.797124277039543
  314    1  4.50000  4.85000   43.117113059164588    2.960425453068946   13.039579107657650
  315    1  4.50000  4.85000   17.165517948027379   18.977244695857742   70.574252296295853
  316    1  4.50000  4.85000   28.571666806726178   29.826740651949326   15.998216967411608
  317    1  4.50000  4.85000   19.029454748783859   29.912577053645457   60.832043722420728
  318    1  4.50000  4.85000   25.254325704469441   41.786855789686932   85.446889100595143
  319    1  4.50000  4.85000   38.891550387764724   11.957844985665277   83.009513665859103
  320    1  4.50000  4.85000   38.680460746674804    4.288095414420885   21.805681782261185
  321    1  4.50000  4.85000   47.570230966617586   42.681921511323935   17.563218566054196
  322    1  4.50000  4.85000    8.516098134498444   23.540515519175884   88.058461556366211
  323    1  4.50000  4.85000   15.543926567347174   15.019048681250039   22.922896485926927