LAMMPS data file

  7583  atoms

   3 atom types

  0.0000000000000000000  50.0000000000000000000 xlo xhi
  0.0000000000000000000  50.0000000000000000000 ylo yhi
  0.0000000000000000000 100.8333333333333285964 zlo zhi

Atoms # sphere

    1    1  5.94828  4.85000   26.088222691494387   45.132570928923940   15.660294067985102
    2    1  5.84483  4.85000    3.971124620102004    3.289838549375968   54.399275723853648
    3    1  5.84483  4.85000   24.918791859430247   15.917560081772084   91.413871544904794
    4    1  5.74138  4.85000   45.910158819767609   42.779236447580693   53.020685610151489
    5    1  5.74138  4.85000   35.905779429785404    9.103091342349352   14.629943373737605
    6    1  5.74138  4.85000   12.868804703288820    6.018794859970255   16.496435480039036
    7    1  5.63793  4.85000   27.202038250813732   22.580482767480923   71.186760362650602
    8    1  5.63793  4.85000   15.044397686507224   46.565436997583127   56.236462830482381
    9    1  5.63793  4.85000   15.855133907385003   41.929655621318936   38.136583083944394
   10    1  5.63793  4.85000   26.394196531017673   25.348535649669504   16.522792015193495
   11    1  5.53448  4.85000   19.857043952259293   17.439917793539411    3.604065139087362
   12    1  5.53448  4.85000    5.143245403708353   17.691171958240531   11.988913074702612
   13    1  5.53448  4.85000    3.627018120015593    7.790531372609735   68.920610796833913
   14    1  5.53448  4.85000   15.948676526556515   23.184366964041921   45.385037383319258
   15    1  5.53448  4.85000    9.860723096273865   32.228227139512114   33.801926589969845
   16    1  5.53448  4.85000   42.492343468560918   46.192014927208355   44.321329086288237
   17    1  5.43103  4.85000   17.546518628837696   22.281193409850800    5.347492409921815
   18    1  5.43103  4.85000   34.353425976169575   40.008714780807715   32.553449736351723
   19    1  5.43103  4.85000    7.764844752982909   14.139874201483270   56.126877860631907
   20    1  5.43103  4.85000   24.200766432009392    4.308615761371526   51.905884280343642
   21    1  5.43103  4.85000   37.604833676186821   26.462800479021144   75.151762806813437
   22    1  5.43103  4.85000    9.078343764216800   10.311302939278708    9.863148173065174
   23    1  5.43103  4.85000   15.720717030077171   44.172838658485865   64.853037846793171
   24    1  5.43103  4.85000   35.005346694558760    4.665369671595492   73.809089784619033
   25    1  5.43103  4.85000   44.941405889668069   47.177772082347325   86.461886374769861
   26    1  5.32759  4.85000   34.265028923260338   25.763381926602364   63.873344188726158
   27    1  5.32759  4.85000   36.201690350982275   38.286949227217569   50.641724743123007
   28    1  5.32759  4.85000   31.270633288300534   33.316725128701805   27.056654979947403
   29    1  5.32759  4.85000    4.631363548431938    9.922208279171487   22.473170883974134
   30    1  5.32759  4.85000    6.991820432644168   17.720550711529381   31.112625729745499
   31    1  5.32759  4.85000   17.762922051365070   43.328600695292138   70.947708475629085
   32    1  5.32759  4.85000   22.779246811784876   42.936348304101209   23.300007396346185
   33    1  5.32759  4.85000   23.926185795284667   12.097832640481636   74.558505718589444
   34    1  5.32759  4.85000   38.748087034044907   42.056204468349748   91.825895062565209
   35    1  5.32759  4.85000   17.024626068965201   23.296135544572675   28.185703298533106
   36    1  5.32759  4.85000   12.009869259775101   14.336007818263697   43.184793018679166
   37    1  5.32759  4.85000   40.442177178458365   28.240600247157428   18.951679307071924
   38    1  5.22414  4.85000   37.399332635879169    5.017410730811084   79.460586984568081
   39    1  5.22414  4.85000   32.732328746385946   38.024805382640650   56.054379440835362
   40    1  5.22414  4.85000   13.369576752149868   18.728222241035379   13.240779406928519
   41    1  5.22414  4.85000   12.618828593649214   37.348239856374782   16.933576720421236
   42    1  5.22414  4.85000   19.735610659021027   11.778280253122933   46.143669225409006
   43    1  5.22414  4.85000   10.947751565941687   28.191290591000818   20.774989442613816
   44    1  5.22414  4.85000   31.396027293679079   15.017450807668439   15.209319633072585
   45    1  5.22414  4.85000   13.994521212034330   15.111857304513885   91.663703902122037
   46    1  5.22414  4.85000    4.215106414721382   12.077584140853816   90.105792034828482
   47    1  5.22414  4.85000    6.699478259807339   36.059673429776645    9.650205888934074
   48    1  5.22414  4.85000   27.086271007365021   12.275023627736037   60.239047058917393
   49    1  5.22414  4.85000   24.159826664172414   35.235198305426437   75.754536249225723
   50    1  5.22414  4.85000   37.542016063586367   34.456470578611217   63.426422428425738
   51    1  5.22414  4.85000   13.669571511233645    4.487132032579281   41.451219110695348
   52    1  5.22414  4.85000   41.359703505812220    7.827352196006814   12.488670499211990
   53    1  5.22414  4.85000   38.742459687815902   29.734360071152430   96.002751316196608
   54    1  5.12069  4.85000   13.579979233141561   26.837396418583051   11.798395500718321
   55    1  5.12069  4.85000   29.099844652339055   13.413339653967983   41.310994488723999
   56    1  5.12069  4.85000   17.299208349124175   15.878303173971691   64.829703382076218
   57    1  5.12069  4.85000   24.381318715284806   28.900755003367212   35.068281901839434
   58    1  5.12069  4.85000   23.196002161587092   41.023497450165408    5.758906725120811
   59    1  5.12069  4.85000   13.966655355113479   10.829504851589201   63.581841340297288
   60    1  5.12069  4.85000    3.601898530284965   16.337110337898334   61.469992651460963
   61    1  5.12069  4.85000   40.308327548490034   39.154250943071546    8.617607589623761
   62    1  5.12069  4.85000   37.693815803573976   42.290638064379706   23.613323877586485
   63    1  5.12069  4.85000   15.226292715122435   46.877204250571410   80.687276891640977
   64    1  5.12069  4.85000    4.414609559790013   19.977883650347827   16.888337932564468
   65    1  5.12069  4.85000   44.972552759263571   32.607456703745029    3.221897712529071
   66    1  5.12069  4.85000   14.571864582640188    6.096078381741505    6.633296623995749
   67    1  5.12069  4.85000   27.440118664366231   36.688577133778828   60.301932328742907
   68    1  5.12069  4.85000    8.909852084821710    9.571152350805592   87.480175678972458
   69    1  5.12069  4.85000    6.110818340308077   41.006281011179681   85.759827945513265
   70    1  5.12069  4.85000    5.753791516423464   38.221739458072079    3.031261677071320
   71    1  5.12069  4.85000   29.217972731715712   44.276100849260850   73.080979266494978
   72    1  5.12069  4.85000   17.717756459946813   29.971954964769850   69.372628812811797
   73    1  5.12069  4.85000   43.452251506821618   35.502996326688162   79.061131060792619
   74    1  5.12069  4.85000    3.498306916743323    6.259960382544142   42.814951239457038
   75    1  5.01724  4.85000   29.867058850192457   13.834098662495169   71.571489500097783
   76    1  5.01724  4.85000    9.580881792001621   39.260513617915358   26.631711270108148
   77    1  5.01724  4.85000    4.840891306447451   11.490082845519703   38.998344885987592
   78    1  5.01724  4.85000   26.697763356970768   33.300451680355295   95.343615231170006
   79    1  5.01724  4.85000   20.537303293710607    7.589897327295100    9.094449986559065
   80    1  5.01724  4.85000   45.700951133062638   34.155454670805888   74.511670628041017
   81    1  5.01724  4.85000   44.415754085968814   43.582509059720650   19.896544437682778
   82    1  5.01724  4.85000   41.724505119381348   20.412580495031662   67.619753080382850
   83    1  5.01724  4.85000   20.437248430555229   30.471648671039382   13.996381618837999
   84    1  5.01724  4.85000   21.016269459958274   39.573317493206495   17.784601307747408
   85    1  5.01724  4.85000   11.116259684524639    3.766366616986575   23.311145225794938
   86    1  5.01724  4.85000    9.702933841481622   25.575536003521833   56.580340455499609
   87    1  5.01724  4.85000    8.481152470220943   28.737738830514090   46.298484081590296
   88    1  5.01724  4.85000    7.808768920478541    5.063149745798290   83.724507157981051
   89    1  5.01724  4.85000   43.659646859415162   10.846561602130341   65.791195435499844
   90    1  5.01724  4.85000   22.613982320861957   28.076949802855147   50.707879934175772
   91    1  5.01724  4.85000   22.328955282830087   20.744622800191735   42.510485381874695
   92    1  5.01724  4.85000   42.213403054786404    5.796301123657827    7.656728782309068
   93    1  5.01724  4.85000   43.542037277404646   24.777804200732476   95.674826597969485
   94    1  5.01724  4.85000   35.359475848746492    2.755735510137008   10.892643914361340
   95    1  5.01724  4.85000   16.301571776047510   20.012780814929862   21.397803996669651
   96    1  5.01724  4.85000   12.499432962621992   32.741056003609714   50.639749453564058
   97    1  5.01724  4.85000   37.108137612533376   19.761942604744426   45.233405194440365
   98    1  5.01724  4.85000   22.576807983948662   29.583909905924536    4.743919894764423
   99    1  5.01724  4.85000   15.649522789843179   20.984285733635893   95.568891486365487
  100    1  5.01724  4.85000   36.824736517391990    4.522562696409802   65.011036100361622
  101    1  4.91379  4.85000   21.695041663156871    4.419917504583339   80.388700168352358
  102    1  4.91379  4.85000   40.554977821388661   45.257728006163205   74.565646459720867
  103    1  4.91379  4.85000    9.464126586268916   45.282036925654261   41.983280234585422
  104    1  4.91379  4.85000   43.075981841010041    6.317569601447369   25.245008374096241
  105    1  4.91379  4.85000   31.726955354244957   14.419325860864106   79.188854311962530
  106    1  4.91379  4.85000   47.171981168024693    6.117793882282587   53.037811385653328
  107    1  4.91379  4.85000   34.623113757524415   30.297626613757021   34.847643187902207
  108    1  4.91379  4.85000   18.166062033654747   32.319540413221560   44.729014651433147
  109    1  4.91379  4.85000   34.471445053304535   25.388798019726039   11.023234860565083
  110    1  4.91379  4.85000    2.520948925016256   18.375225621993323   75.150535621426783
  111    1  4.91379  4.85000   30.120617409145098   46.135253702843535   58.323757857776378
  112    1  4.91379  4.85000   35.376333077778732   39.488170293304414   83.669029398010423
  113    1  4.91379  4.85000   17.865117603262370   36.900330808679705    8.625420491022663
  114    1  4.91379  4.85000   23.111696610733528   20.324007989677899   74.770282403948997
  115    1  4.91379  4.85000    5.497770800575596    9.765987876915947   53.621686841566110
  116    1  4.91379  4.85000   41.187958297970845   37.701590617850989   21.935154773686339
  117    1  4.91379  4.85000   17.711399396071695   13.136997008630470   52.417742763668137
  118    1  4.91379  4.85000   43.497122857985978   40.414543062708248   68.300414257700453
  119    1  4.91379  4.85000   11.221516980645571   25.773719012499534   89.159693377726526
  120    1  4.91379  4.85000    9.386031242772948   34.417932885116343   77.902616535724491
  121    1  4.91379  4.85000   44.759937723468269   21.165753212534735   63.161975401338957
  122    1  4.91379  4.85000   17.247952208280303   27.156725814863570   31.641034493877232
  123    1  4.91379  4.85000   26.554580985247487    5.680199979897181   26.767792474331142
  124    1  4.91379  4.85000   32.140021463478483   41.863750662410780   42.025909925553258
  125    1  4.91379  4.85000   27.778753178687712   46.036553548411213   65.293753873731944
  126    1  4.91379  4.85000   10.301177557389291   43.166223514360937   60.944350425499152
  127    1  4.91379  4.85000    6.543981551642484   44.816474665467013   28.625387378470297
  128    1  4.91379  4.85000   40.516601908465297   14.519269230571332   76.221761934461213
  129    1  4.91379  4.85000   34.758510004010731    5.516817434518860   25.013652969052000
  130    1  4.91379  4.85000   28.486664206884917   20.149101010678969   65.176136135500045
  131    1  4.91379  4.85000   19.169833459965307   20.964430307212393   37.911441616554477
  132    1  4.91379  4.85000   41.399515172103555   23.803640992860743   34.229019517463023
  133    1  4.81034  4.85000   47.574572127019906   18.059768457848680   15.986180805251065
  134    1  4.81034  4.85000   30.641069658854828   18.775677771303336   35.596301086718320
  135    1  4.81034  4.85000   35.973792244021780   21.229380249267503   13.107509413145650
  136    1  4.81034  4.85000    4.822201491382991   31.047574955440918   61.206315720404000
  137    1  4.81034  4.85000   30.225575838673098   39.140880393233175    4.969958614191456
  138    1  4.81034  4.85000   18.869101605631684   34.633291683778566   88.311711090045961
  139    1  4.81034  4.85000   24.995980607328040   37.444754354413647   82.084874179788741
  140    1  4.81034  4.85000   38.846701480160142   47.274419691842212   11.240094904337781
  141    1  4.81034  4.85000    6.964282814276499   43.441336259150738   19.462663666356519
  142    1  4.81034  4.85000    8.170933042998733   34.612801886523080   57.213529972125201
  143    1  4.81034  4.85000   10.799012613176211   37.742517333475611   88.004858798759486
  144    1  4.81034  4.85000   40.520604017450097   17.443029757787674   61.875459830152323
  145    1  4.81034  4.85000   18.698529847260399   39.813031388396922   52.284045138558206
  146    1  4.81034  4.85000   43.575875957540859   14.063205897144723    8.998719218354726
  147    1  4.81034  4.85000   47.497646211818136   16.852484681454989    7.204749627308519
  148    1  4.81034  4.85000   39.782852772455286   21.732173189882182   79.775705377721053
  149    1  4.81034  4.85000   21.352237045451933    7.683888932830840   33.233856347776502
  150    1  4.81034  4.85000   14.528023654305512    4.782019716962228   33.185943242320810
  151    1  4.81034  4.85000   35.408853444499286   20.869577823092690   84.964257493012340
  152    1  4.81034  4.85000   46.969508372368445    9.856278816865226   82.468063379569202
  153    1  4.81034  4.85000   22.537379850774535   35.414103472574801   41.098105326165957
  154    1  4.81034  4.85000   11.304329641887426   39.030453566686326   77.610673204594150
  155    1  4.81034  4.85000   11.234703525900860   18.874556362708816   71.433364746433114
  156    1  4.81034  4.85000   17.617234268486417    2.988803176761808   95.696507221914175
  157    1  4.81034  4.85000   47.494436891446732   36.319568711796322   21.468649195429293
  158    1  4.81034  4.85000   36.498850682215561   11.373922389223262   36.174757212584915
  159    1  4.81034  4.85000    3.864287282495580   23.955405741348194   51.860866439290021
  160    1  4.81034  4.85000   17.828152581001071   15.878280544686003   77.974595661052916
  161    1  4.81034  4.85000   20.826211676945981    8.498932124886824   95.168075865545902
  162    1  4.81034  4.85000   29.908610374857222   43.951607506328912   29.178367676982827
  163    1  4.81034  4.85000   42.432168813209593    4.708562136400409   54.956810700847001
  164    1  4.81034  4.85000   27.689143568734309   22.121492172125130   47.488771977113132
  165    1  4.81034  4.85000    3.527560075347208   15.747542887352887   43.588493704389734
  166    1  4.81034  4.85000    8.426937986598666   28.642512761414974   82.902121207624219
  167    1  4.81034  4.85000   40.858298099306346   20.499292835299137   88.096920256284207
  168    1  4.81034  4.85000    7.271383328984546   38.490163026588142   91.324332088886052
  169    1  4.81034  4.85000    7.601305964044606   34.191164543714365   18.677174439198801
  170    1  4.81034  4.85000   21.816231883132669   10.844257151308563   24.022945170259167
  171    1  4.70690  4.85000   38.217852273221503   14.473974884014989   65.045645698456156
  172    1  4.70690  4.85000   27.964943626437151   23.300719907692141    5.704224405531262
  173    1  4.70690  4.85000   26.056054395896599   38.730238168845887   33.440526854461986
  174    1  4.70690  4.85000    5.818626951027014   21.600299021355333   46.762156439527566
  175    1  4.70690  4.85000   45.292782362087827   26.449864847987534   43.299110735062577
  176    1  4.70690  4.85000   16.209039370324557   21.755173688346812   16.242546947971256
  177    1  4.70690  4.85000   29.633812417523462    7.344357519958947   85.611603218362021
  178    1  4.70690  4.85000   22.072194309669200    3.633686212224747   91.505743603873526
  179    1  4.70690  4.85000   33.152556105796094    7.251928603255271    2.946122012370973
  180    1  4.70690  4.85000   29.382799629377843   32.438068411934566   80.193171117662828
  181    1  4.70690  4.85000   26.908795348895584   28.228920245593610   91.818149649308282
  182    1  4.70690  4.85000   35.354450779711236   13.371848773427189   46.502520620457140
  183    1  4.70690  4.85000   36.912166004463288   46.155368414314985   37.182179267679643
  184    1  4.70690  4.85000    5.984761104588690   42.575970829553249   79.726279933747804
  185    1  4.70690  4.85000   31.726006313976537    7.479341109732689   40.640327442888150
  186    1  4.70690  4.85000   11.992060728781620   40.018995348410449   94.043274992949947
  187    1  4.70690  4.85000   16.622915287744647   24.770657447160790   92.342114869308702
  188    1  4.70690  4.85000   41.481225750222578   11.305372389261029   25.021920048185148
  189    1  4.70690  4.85000   23.483360049196794   40.200755193711032   53.509033065651401
  190    1  4.70690  4.85000   37.038925842241838   33.778107969196633   74.829093538320137
  191    1  4.70690  4.85000   26.786798582188528   37.808855948209704   12.123111423696676
  192    1  4.70690  4.85000   40.423418219309205   19.560178202530366    3.376789574828127
  193    1  4.70690  4.85000    2.452790553652876   40.064692530601512   77.051655389208804
  194    1  4.70690  4.85000   46.081343363655009   13.217728059489133   62.232950051319676
  195    1  4.70690  4.85000   20.722153797226046   40.066409680382499   34.320299049225795
  196    1  4.70690  4.85000   26.128302995040723    8.169200360338193   81.107390946246355
  197    1  4.70690  4.85000    9.715817756524368   16.004587248399321   17.040777885382781
  198    1  4.70690  4.85000   20.579422136220344   22.831564006958960   67.402024632782727
  199    1  4.70690  4.85000   33.853436656898602   38.219514760752887   45.171849268145614
  200    1  4.70690  4.85000    5.313270572462397   23.803072174733021   73.464941795112708
  201    1  4.70690  4.85000    6.961288940267110   22.913765322640465   78.897677929569070
  202    1  4.70690  4.85000   24.387487795260384   14.133594597395188   81.318251057554107
  203    1  4.70690  4.85000   23.720464660830000   40.631868264463016   48.481676701739467
  204    1  4.70690  4.85000   40.474961660339439   40.321797504417972   35.487370374072988
  205    1  4.70690  4.85000    3.852056556096582   15.483777437009916   80.310138370137281
  206    1  4.70690  4.85000   22.827646588507427    4.199145975950363   22.884858710474358
  207    1  4.70690  4.85000    3.479209485055715    2.567829421678566   10.520046842857779
  208    1  4.70690  4.85000   46.924118100915010   39.085505237519769   57.498096991625232
  209    1  4.70690  4.85000   36.295787955004585   40.983462441752572   97.636077261844022
  210    1  4.70690  4.85000    5.465922126193330   29.269407937748664   26.752108153901389
  211    1  4.70690  4.85000   33.356648639250757   12.903272814904035   96.152587033686075
  212    1  4.70690  4.85000    4.059010121540330   41.984853659444440   67.887324680265024
  213    1  4.70690  4.85000   13.319769814658098   23.395277380286643   67.547611364394754
  214    1  4.60345  4.85000   17.887953393199009   34.653231844061317   82.962493641100949
  215    1  4.60345  4.85000    6.710746204271522   45.962234442402398   34.316945574812358
  216    1  4.60345  4.85000   23.869456534734695   40.942017279095253   94.094173797338115
  217    1  4.60345  4.85000   44.001770726957268   15.926444029778114   58.503747702949539
  218    1  4.60345  4.85000   28.662178398214330    2.632340284830411   42.240048631269936
  219    1  4.60345  4.85000   14.039352424183310    4.008351279587763   89.059553369696133
  220    1  4.60345  4.85000    8.619000336334157    7.337685861909766   75.535491003407486
  221    1  4.60345  4.85000   36.954903455199194   34.525295242742608    4.401804101887985
  222    1  4.60345  4.85000   18.640284323775447   10.015465112959383   60.428583766751821
  223    1  4.60345  4.85000   24.857192055736071   17.677221766243527   59.711982747940233
  224    1  4.60345  4.85000   39.734335386839014   46.013669607542923   80.144862140307112
  225    1  4.60345  4.85000   25.980376355977342   32.462261886942741   48.716585449768559
  226    1  4.60345  4.85000   30.311690251844833   22.120797420047371   41.939283185179526
  227    1  4.60345  4.85000   28.107426733554721   18.342810863549193   96.223876771799695
  228    1  4.60345  4.85000   18.453899189716942   28.833661125807357   23.426385175962043
  229    1  4.60345  4.85000   46.921957042065699    5.043431800748230   36.130337825703194
  230    1  4.60345  4.85000   44.715868439893065   22.862189533073543   86.299550746613846
  231    1  4.60345  4.85000   41.266976931757227   28.701977197474395   38.096253673074798
  232    1  4.60345  4.85000   11.262541455509712   11.813735520276897   59.450813137944436
  233    1  4.60345  4.85000   35.925907700847361   19.563068650149795   32.197422235533232
  234    1  4.60345  4.85000   11.342407687929729   42.736078315307836   13.309593574724939
  235    1  4.60345  4.85000   44.212044064783264   29.839284221864020   94.874348175061854
  236    1  4.60345  4.85000    9.708057720357786   44.581964624176443   51.624766113947622
  237    1  4.60345  4.85000    7.634234206291783   38.011856877573663   43.918770683534362
  238    1  4.60345  4.85000    8.795842439525504    3.380251861129618   37.523534513624185
  239    1  4.60345  4.85000   18.931904777153399   34.814230535282356   76.403282907532997
  240    1  4.60345  4.85000   34.650988496285223   39.114308295888229   63.890480457049101
  241    1  4.60345  4.85000    2.603728495767757   47.171983708796368   47.328430542852118
  242    1  4.60345  4.85000   27.943754276900698   21.666303218390791   55.233800803071205
  243    1  4.60345  4.85000   22.674671225633965    6.488515922678853   74.259705456538057
  244    1  4.60345  4.85000   23.819999349464950   45.630749868648849   79.205336534191247
  245    1  4.60345  4.85000   42.231865495232213   39.633304279157663   88.040061924854726
  246    1  4.60345  4.85000   22.113701111358893   37.453173188540141   62.796039140661755
  247    1  4.60345  4.85000   16.761411685270698    4.287806621141533   66.433315263211128
  248    1  4.60345  4.85000   17.890566806063632   14.346177822734841   87.292983644573951
  249    1  4.60345  4.85000   34.653676238474681   13.060864103526612   68.494872490742367
  250    1  4.60345  4.85000   43.770018884784015   35.287146729978055   53.079965671723720
  251    1  4.60345  4.85000   11.927331395390624   18.492914576892275   34.202857432782899
  252    1  4.60345  4.85000   32.870515898260386   11.845740403818887   32.570073163034579
  253    1  4.60345  4.85000   35.297549774074113   18.844990255210785   64.656152807834687
  254    1  4.60345  4.85000    9.696113991360047   16.435085220361081   84.768392323447770
  255    1  4.60345  4.85000   17.484154990887195   41.574657092318098   59.664047824516736
  256    1  4.60345  4.85000   18.158379995329405   19.405469631073561   61.121300305618000
  257    1  4.60345  4.85000   39.510016830250983    8.066753729034062   38.880955186816010
  258    1  4.60345  4.85000   18.216029016529475   17.178745919269012   41.358066149659280
  259    1  4.60345  4.85000    4.912243294461995   45.681701813090541   93.346112688305482
  260    1  4.60345  4.85000   36.374817624706949   46.034271940969553   85.183017478119197
  261    1  4.50000  4.85000   39.922089606421871   27.471202609367879   23.995731262073967
  262    1  4.50000  4.85000   34.913126381398456   46.398587707398676   79.622342892749643
  263    1  4.50000  4.85000   23.183304993361443   47.516606022495402   66.373218095959871
  264    1  4.50000  4.85000   26.725002431535511    4.951690600394029   33.074917953418201
  265    1  4.50000  4.85000   30.421570448044154   47.257486945250292   44.591634231361233
  266    1  4.50000  4.85000   42.834633987011784   40.506391646572261   47.284726348582609
  267    1  4.50000  4.85000   22.415579711549615   12.620304512850229   54.228737166189028
  268    1  4.50000  4.85000   41.855763144551574   33.838593699654936   57.952778340332472
  269    1  4.50000  4.85000   46.666689735646187   38.042243351899664   86.040110462036807
  270    1  4.50000  4.85000    4.156259291576134   35.023716374197896   49.435944635062484
  271    1  4.50000  4.85000   36.877841191681519   40.213013326180850   17.574636558005153
  272    1  4.50000  4.85000   43.241309416645286   16.190624061327402   83.705978647906832
  273    1  4.50000  4.85000   19.611869742123964   28.202607104588935   77.905206699789360
  274    1  4.50000  4.85000    7.724724565432112   45.332229470465201   75.113660193477045
  275    1  4.50000  4.85000   19.904250881887329   18.141477603781368   11.921309295482999
  276    1  4.50000  4.85000   33.526705827997290   29.556993346228221   71.313441406727762
  277    1  4.50000  4.85000   23.278883216977622   18.683663480189889   81.307972430320376
  278    1  4.50000  4.85000   46.029020232041333   31.939436885295489   27.305858182094564
  279    1  4.50000  4.85000   33.491180408634555    5.732574274615217   57.803472962618542
  280    1  4.50000  4.85000   21.491978139035471   47.557818069079886   60.551840428450426
  281    1  4.50000  4.85000   20.506599717661960   13.402085495224020   70.711822328675865
  282    1  4.50000  4.85000   17.608302944843054   26.263373986215047   60.012905383333887
  283    1  4.50000  4.85000   45.543082489254289    3.601060227381975   92.110692500217198
  284    1  4.50000  4.85000   19.730918687365534   41.350538281451477   28.271056640798264
  285    1  4.50000  4.85000   35.781749045060195   19.891971387543684   53.214930378104043
  286    1  4.50000  4.85000   37.143949518329308   44.267918531720255   28.896127296936708
  287    1  4.50000  4.85000    2.547855194198005   36.473470828422286   92.760788272377368
  288    1  4.50000  4.85000   12.022990365796268   36.159913361813878   71.490289627651933
  289    1  4.50000  4.85000    2.948354893459303   30.403278352424916   73.699205537677102
  290    1  4.50000  4.85000   17.319325206123409   40.907953665775850   46.871027065131088
  291    1  4.50000  4.85000   19.792867216742195   46.471590851978718   15.644747960045470
  292    1  4.50000  4.85000    4.902480109437414   24.644088151576049   90.873998663879178
  293    1  4.50000  4.85000   41.635135365266578    3.475081214692486   71.765856684630990
  294    1  4.50000  4.85000    2.756918819106501   26.607495627521924    8.819068769928432
  295    1  4.50000  4.85000   34.366374608439642   37.946431687256698   39.964911848080519
  296    1  4.50000  4.85000   30.673343775874450   18.391022124715377   26.575566986411342
  297    1  4.50000  4.85000    7.009086190731882   11.321073287269622   47.597046154659168
  298    1  4.50000  4.85000   44.614640194947221   35.618179067575170   15.657048029340636
  299    1  4.50000  4.85000   28.384505259743317   11.391149229961822   22.286225826070627
  300    1  4.50000  4.85000   33.285494648755503   33.541714751410311   82.769086077032043
  301    1  4.50000  4.85000   11.800710105684537   29.564974157509337    6.724649175993571
  302    1  4.50000  4.85000   16.981568524739124   39.979997765483375   20.485439254474436
  303    1  4.50000  4.85000   20.445837541152326   33.774459484321156   50.924280457245160
  304    1  4.50000  4.85000   35.696028935612667   13.276772653863121   52.735306193083858
  305    1  4.50000  4.85000   26.260897060732106   28.549315671838617   78.812195207729602
  306    1  4.50000  4.85000   16.178918750241767   35.091629109556735   26.376875368879336
  307    1  4.50000  4.85000   36.268691711461749   46.360824155047290   42.384846642306478
  308    1  4.50000  4.85000    2.926574111494541   14.103533005344486   34.770995270619281
  309    1  4.50000  4.85000   21.713373775682946   34.865812578200320   18.271992569789042
  310    1  4.50000  4.85000   43.818860404793668   45.603726709221313   10.303289518822817
  311    1  4.39655  4.85000   31.361070985364414   12.364064410489435   48.847313718352112
  312    1  4.39655  4.85000   46.316993394468305   39.995812726183956   25.170517323202947
  313    1  4.39655  4.85000   32.392217381785883   15.878458059927665   62.179059762306409
  314    1  4.39655  4.85000   29.582107350118253   30.908358549886476   33.700967118347492
  315    1  4.39655  4.85000   43.917094577481180    7.559633189512564   39.639799902899902
  316    1  4.39655  4.85000   25.974668083916459   35.108978571085544    8.364954872883660
  317    1  4.39655  4.85000   26.846136308039171   23.885299382582641   61.004564130983859
  318    1  4.39655  4.85000   44.721780727613762   29.764216234363484   64.691314123027169
  319    1  4.39655  4.85000   11.184395762495710   38.051157694847184   83.212928407771201
  320    1  4.39655  4.85000   32.287581389629288   47.416224555350631   96.567794234672760
  321    1  4.39655  4.85000   19.984119364532152   20.754258310604062   47.360066040005869
  322    1  4.39655  4.85000   44.919021872977936   14.793358705609526   48.703778023865659
  323    1  4.39655  4.85000    8.578016550933336   39.828873118789993   71.405903221326440