LIGGGHTS (Version LIGGGHTS-PUBLIC 3.8.0, compiled 2023-04-28-19:34:04 by howard, git commit bbd23c8521fe0a4f3f5bfd0d3dc9a7dddd68d90b)
# to run the script you have to define the variables via '-var' option
#  - blockiness1
#  - blockiness2
#  - angle

echo both

atom_style	superquadric

atom_modify	map array

boundary	f f f
newton		off
communicate	single vel yes
units		si

region		reg block -0.05 0.05 -0.05 0.05 0.0 0.1 units box
create_box	2 reg
Created orthogonal box = (-0.05 -0.05 0) to (0.05 0.05 0.1)
  1 by 1 by 1 MPI processor grid

neighbor	0.002 bin
neigh_modify	delay 0

variable blockiness1 equal 2
variable blockiness2 equal 8
variable angle equal 45

variable dt equal 1e-5
variable nStepsRun    equal 0.1/${dt}
variable nStepsRun    equal 0.1/1e-05
variable writeOutEvery equal 0.001/${dt}
variable writeOutEvery equal 0.001/1e-05
variable thermofreq   equal 0.01/${dt}
variable thermofreq   equal 0.01/1e-05

variable cf_ww equal 1.0
variable cf_pw equal 0.5
variable cf_pp equal 0.5

variable cof_ww equal 0.5
variable cof_pw equal 0.5
variable cof_pp equal 0.5

variable corf_ww equal 0.
variable corf_pw equal 0.05
variable corf_pp equal 0.05

#variable coefficientRollingViscousDamping_ww equal 0.0
#variable coefficientRollingViscousDamping_pw equal 0.0
#variable coefficientRollingViscousDamping_pp equal 0.0

variable Yw equal 1e+7
variable Yp equal 1e+7

#Material properties required for new pair styles
fix 		m1 all property/global youngsModulus peratomtype ${Yw} ${Yp}
fix 		m1 all property/global youngsModulus peratomtype 10000000 ${Yp}
fix 		m1 all property/global youngsModulus peratomtype 10000000 10000000
fix 		m2 all property/global poissonsRatio peratomtype 0.3 0.3
fix 		m3 all property/global coefficientRestitution peratomtypepair 2 ${cf_ww} ${cf_pw} ${cf_pw} ${cf_pp}
fix 		m3 all property/global coefficientRestitution peratomtypepair 2 1 ${cf_pw} ${cf_pw} ${cf_pp}
fix 		m3 all property/global coefficientRestitution peratomtypepair 2 1 0.5 ${cf_pw} ${cf_pp}
fix 		m3 all property/global coefficientRestitution peratomtypepair 2 1 0.5 0.5 ${cf_pp}
fix 		m3 all property/global coefficientRestitution peratomtypepair 2 1 0.5 0.5 0.5
fix         m4 all property/global coefficientFriction peratomtypepair 2 ${cof_ww} ${cof_pw} ${cof_pw} ${cof_pp}
fix         m4 all property/global coefficientFriction peratomtypepair 2 0.5 ${cof_pw} ${cof_pw} ${cof_pp}
fix         m4 all property/global coefficientFriction peratomtypepair 2 0.5 0.5 ${cof_pw} ${cof_pp}
fix         m4 all property/global coefficientFriction peratomtypepair 2 0.5 0.5 0.5 ${cof_pp}
fix         m4 all property/global coefficientFriction peratomtypepair 2 0.5 0.5 0.5 0.5
fix         m5 all property/global coefficientRollingFriction peratomtypepair 2 ${corf_ww} ${corf_pw} ${corf_pw} ${corf_pp}
fix         m5 all property/global coefficientRollingFriction peratomtypepair 2 0 ${corf_pw} ${corf_pw} ${corf_pp}
fix         m5 all property/global coefficientRollingFriction peratomtypepair 2 0 0.05 ${corf_pw} ${corf_pp}
fix         m5 all property/global coefficientRollingFriction peratomtypepair 2 0 0.05 0.05 ${corf_pp}
fix         m5 all property/global coefficientRollingFriction peratomtypepair 2 0 0.05 0.05 0.05
fix         m6 all property/global characteristicVelocity scalar 1.0
fix         m7 all property/global coefficientRollingViscousDamping peratomtypepair 2 0.0 0.0 0.0 0.0


#New pair style
pair_style gran model hertz tangential history rolling_friction epsd2 surface superquadric #Hertzian without cohesion
pair_coeff	* *
timestep ${dt}
timestep 1e-05

variable totaltime equal step*${dt}
variable totaltime equal step*1e-05

#fix		cad all mesh/surface/stress file meshes/simple_chute.stl type 1 wear finnie
#fix		inface all mesh/surface file meshes/insertion_face.stl type 1
#fix granwalls all wall/gran model hertz tangential history surface superquadric mesh n_meshes 1 meshes cad

fix xwalls1 all wall/gran model hertz tangential history rolling_friction epsd2 surface superquadric primitive type 1 xplane -0.05
fix xwalls2 all wall/gran model hertz tangential history rolling_friction epsd2 surface superquadric primitive type 1 xplane 0.05
fix ywalls1 all wall/gran model hertz tangential history rolling_friction epsd2 surface superquadric primitive type 1 yplane -0.05
fix ywalls2 all wall/gran model hertz tangential history rolling_friction epsd2 surface superquadric primitive type 1 yplane 0.05
fix zwalls1 all wall/gran model hertz tangential history rolling_friction epsd2 surface superquadric primitive type 1 zplane 0.0
fix zwalls2 all wall/gran model hertz tangential history rolling_friction epsd2 surface superquadric primitive type 1 zplane 0.1


create_atoms 1 single 0.0 0.0 0.01
Created 1 atoms
set atom 1 type 2 shape 0.002 0.002 0.004 blockiness ${blockiness1} ${blockiness2} density 2500 vz 0.1 quat 1 0 0 ${angle} #omegaz 10
set atom 1 type 2 shape 0.002 0.002 0.004 blockiness 2 ${blockiness2} density 2500 vz 0.1 quat 1 0 0 ${angle} 
set atom 1 type 2 shape 0.002 0.002 0.004 blockiness 2 8 density 2500 vz 0.1 quat 1 0 0 ${angle} 
set atom 1 type 2 shape 0.002 0.002 0.004 blockiness 2 8 density 2500 vz 0.1 quat 1 0 0 45 
  1 settings made for type
  1 settings made for shape
  1 settings made for blockiness
  1 settings made for density
  1 settings made for vz
  1 settings made for quat

create_atoms 1 single 0.0 0.0 0.09
Created 1 atoms
set atom 2 type 2 shape 0.002 0.002 0.004 blockiness ${blockiness1} ${blockiness2} density 2500 vz -0.1 quat 1 0 0 -${angle} #omegaz 10
set atom 2 type 2 shape 0.002 0.002 0.004 blockiness 2 ${blockiness2} density 2500 vz -0.1 quat 1 0 0 -${angle} 
set atom 2 type 2 shape 0.002 0.002 0.004 blockiness 2 8 density 2500 vz -0.1 quat 1 0 0 -${angle} 
set atom 2 type 2 shape 0.002 0.002 0.004 blockiness 2 8 density 2500 vz -0.1 quat 1 0 0 -45 
  1 settings made for type
  1 settings made for shape
  1 settings made for blockiness
  1 settings made for density
  1 settings made for vz
  1 settings made for quat

group		nve_group region reg
2 atoms in group nve_group

#apply nve integration to all particles that are inserted as single particles
fix		integr all nve/superquadric integration_scheme 1

variable time equal step*${dt}
variable time equal step*1e-05

#output settings, include total thermal energy

compute		rke all erotate/superquadric
compute		kin_e all ke
#variable rot_en equal c_rke
#variable kin_en equal c_kin_e

variable vel atom sqrt(vx*vx+vy*vy+vz*vz)
compute vmax all reduce max v_vel
variable vmax equal c_vmax

thermo_style	custom step atoms c_rke c_kin_e c_vmax cpu time
thermo		${thermofreq}
thermo		1000
thermo_modify	lost ignore norm no
compute_modify	thermo_temp dynamic yes
WARNING: Changing thermo_temp compute object. This object is deprecated and will be removed in the future. (../compute.cpp:161)

#insert the first particles so that dump is not empty

#fix write_m1 all print ${writeOutEvery} "${time} ${rot_en}" file rotational_energy_.txt screen no
#fix write_m2 all print ${writeOutEvery} "${time} ${kin_en}" file kinetic_energy_.txt screen no

run		1
Setting up run at Fri Apr 28 19:45:55 2023

Memory usage per processor = 22.5184 Mbytes
    Step    Atoms            rke          kin_e           vmax            CPU           Time 
       0        2              0  2.0873831e-06            0.1              0              0 
       1        2              0  2.0873831e-06            0.1  3.4353987e-05          1e-05 
Loop time of 4.0966e-05 on 1 procs for 1 steps with 2 atoms, finish time Fri Apr 28 19:45:55 2023


Pair  time (%) = 1.21398e-06 (2.96338)
Neigh time (%) = 0 (0)
Comm  time (%) = 2.20025e-07 (0.537092)
Outpt time (%) = 2.0155e-05 (49.1995)
Other time (%) = 1.93769e-05 (47.3)

Nlocal:    2 ave 2 max 2 min
Histogram: 1 0 0 0 0 0 0 0 0 0
Nghost:    0 ave 0 max 0 min
Histogram: 1 0 0 0 0 0 0 0 0 0
Neighs:    0 ave 0 max 0 min
Histogram: 1 0 0 0 0 0 0 0 0 0

Total # of neighbors = 0
Ave neighs/atom = 0
Neighbor list builds = 0
Dangerous builds = 0
shell mkdir post1
dump            dmp all custom 800 post1/dump*.newModels id type x y z ix iy iz vx vy vz fx fy fz omegax omegay omegaz radius

#dump		dmp all custom/vtk ${writeOutEvery} post/dump*.superq.vtk type mass x y z id vx vy vz fx fy fz omegax omegay omegaz radius shapex shapey shapez quat1 quat2 quat3 quat4 blockiness1 blockiness2 tqx tqy tqz angmomx angmomy angmomz
#dump 		dumpstress all mesh/gran/VTK ${writeOutEvery} post/dump*.vtk id

run		${nStepsRun} upto
run		10000 upto
Setting up run at Fri Apr 28 19:45:55 2023

Memory usage per processor = 22.5948 Mbytes
    Step    Atoms            rke          kin_e           vmax            CPU           Time 
       1        2              0  2.0873831e-06            0.1              0          1e-05 
    1000        2              0  2.0873831e-06            0.1     0.00143544           0.01 
    2000        2              0  2.0873831e-06            0.1    0.002790975           0.02 
    3000        2              0  2.0873831e-06            0.1    0.004127291           0.03 
    4000        2              0  2.0873831e-06            0.1    0.005648284           0.04 
    5000        2              0  2.0873831e-06            0.1     0.00691335           0.05 
    6000        2              0  2.0873831e-06            0.1    0.008173452           0.06 
    7000        2              0  2.0873831e-06            0.1    0.009441118           0.07 
    8000        2              0  2.0873831e-06            0.1    0.010868092           0.08 
    9000        2              0  2.0873831e-06            0.1    0.012067945           0.09 
   10000        2              0  2.0873831e-06            0.1    0.013361488            0.1 
Loop time of 0.0133689 on 1 procs for 9999 steps with 2 atoms, finish time Fri Apr 28 19:45:55 2023


Pair  time (%) = 0.00206209 (15.4245)
Neigh time (%) = 5.995e-05 (0.448428)
Comm  time (%) = 0.000473986 (3.54543)
Outpt time (%) = 0.00201487 (15.0713)
Other time (%) = 0.00875804 (65.5104)

Nlocal:    2 ave 2 max 2 min
Histogram: 1 0 0 0 0 0 0 0 0 0
Nghost:    0 ave 0 max 0 min
Histogram: 1 0 0 0 0 0 0 0 0 0
Neighs:    0 ave 0 max 0 min
Histogram: 1 0 0 0 0 0 0 0 0 0

Total # of neighbors = 0
Ave neighs/atom = 0
Neighbor list builds = 9
Dangerous builds = 0
