LIGGGHTS (Version LIGGGHTS-PUBLIC 3.8.0, compiled 2018-08-29-09:25:30 by howietu, git commit 28301df8853491784b1d8b90533ea89b8c6af1e8)
#------------------General Settings for Granular Systems--------------------------------------------
atom_style	granular
atom_modify	map           array
boundary	f f f
newton		off
communicate	single        vel       yes
units		si
neighbor        0.0002        bin
neigh_modify    delay         0
echo            both
variable        dt            equal     1e-5
variable        nStepsRun     equal     10.0/${dt}
variable        nStepsRun     equal     10.0/1e-05
variable        writeOutEvery equal     0.2/${dt}
variable        writeOutEvery equal     0.2/1e-05
variable        thermofreq    equal     0.01/${dt}
variable        thermofreq    equal     0.01/1e-05
timestep ${dt}
timestep 1e-05

#--------------------------Box Information---------------------------------------------------------
variable       skfstl        equal     1/5000
variable       x1y1          equal    -1*${skfstl}*2500
variable       x1y1          equal    -1*0.0002*2500
variable       x2y2          equal     1*${skfstl}*2500
variable       x2y2          equal     1*0.0002*2500
variable       z1            equal    -1*${skfstl}*2500
variable       z1            equal    -1*0.0002*2500
variable       z2            equal     1*${skfstl}*2500
variable       z2            equal     1*0.0002*2500

#--------------------------Model Geometry---------------------------------------------------------
variable        r0            equal     0.0145
variable        grwth         equal     0.01                   # Overall growth of each direction
variable        grwFq         equal     1000                    # The growth frequncy, every # of steps
variable        grwNs         equal     20                      # The total number of growth step
variable        grwRt         equal     ${grwth}/${grwNs}       # Growth rate at each growth step
variable        grwRt         equal     0.01/${grwNs}       
variable        grwRt         equal     0.01/20       

#--------------------------Material Information---------------------------------------------------------
variable        cf_pp         equal     1.0
variable        cf_pw         equal     0.2
variable        cf_ww         equal     0.2
variable        cof_pp        equal     0.2
variable        cof_pw        equal     0.1
variable        cof_ww        equal     0.1
variable        corf_pp       equal     0.
variable        corf_pw       equal     0.2
variable        corf_ww       equal     0.2
variable        Yp            equal     1e+7
variable        Yw            equal     5.1e+6

#---------------------Generate Box----------------------------------------
region          reg block ${x1y1} ${x2y2} ${x1y1} ${x2y2} ${z1} ${z2}  units box
region          reg block -0.5 ${x2y2} ${x1y1} ${x2y2} ${z1} ${z2}  units box
region          reg block -0.5 0.5 ${x1y1} ${x2y2} ${z1} ${z2}  units box
region          reg block -0.5 0.5 -0.5 ${x2y2} ${z1} ${z2}  units box
region          reg block -0.5 0.5 -0.5 0.5 ${z1} ${z2}  units box
region          reg block -0.5 0.5 -0.5 0.5 -0.5 ${z2}  units box
region          reg block -0.5 0.5 -0.5 0.5 -0.5 0.5  units box
create_box      2 reg
Created orthogonal box = (-0.5 -0.5 -0.5) to (0.5 0.5 0.5)
  4 by 4 by 5 MPI processor grid

#---------------------Assign Material Properties to particle and wall----------------------------------------
fix 		m1 all property/global youngsModulus peratomtype ${Yp} ${Yw}
fix 		m1 all property/global youngsModulus peratomtype 10000000 ${Yw}
fix 		m1 all property/global youngsModulus peratomtype 10000000 5100000
fix 		m2 all property/global poissonsRatio peratomtype 0.3 0.3
fix 		m3 all property/global coefficientRestitution peratomtypepair 2 ${cf_pp} ${cf_pw} ${cf_pw} ${cf_ww}
fix 		m3 all property/global coefficientRestitution peratomtypepair 2 1 ${cf_pw} ${cf_pw} ${cf_ww}
fix 		m3 all property/global coefficientRestitution peratomtypepair 2 1 0.2 ${cf_pw} ${cf_ww}
fix 		m3 all property/global coefficientRestitution peratomtypepair 2 1 0.2 0.2 ${cf_ww}
fix 		m3 all property/global coefficientRestitution peratomtypepair 2 1 0.2 0.2 0.2
fix             m4 all property/global coefficientFriction peratomtypepair 2 ${cof_pp} ${cof_pw} ${cof_pw} ${cof_ww}
fix             m4 all property/global coefficientFriction peratomtypepair 2 0.2 ${cof_pw} ${cof_pw} ${cof_ww}
fix             m4 all property/global coefficientFriction peratomtypepair 2 0.2 0.1 ${cof_pw} ${cof_ww}
fix             m4 all property/global coefficientFriction peratomtypepair 2 0.2 0.1 0.1 ${cof_ww}
fix             m4 all property/global coefficientFriction peratomtypepair 2 0.2 0.1 0.1 0.1
fix             m5 all property/global coefficientRollingFriction peratomtypepair 2 ${corf_pp} ${corf_pw} ${corf_pw} ${corf_ww}
fix             m5 all property/global coefficientRollingFriction peratomtypepair 2 0 ${corf_pw} ${corf_pw} ${corf_ww}
fix             m5 all property/global coefficientRollingFriction peratomtypepair 2 0 0.2 ${corf_pw} ${corf_ww}
fix             m5 all property/global coefficientRollingFriction peratomtypepair 2 0 0.2 0.2 ${corf_ww}
fix             m5 all property/global coefficientRollingFriction peratomtypepair 2 0 0.2 0.2 0.2
fix             m6 all property/global cohesionEnergyDensity peratomtypepair 2 500 0 0 0

#Define pair style
pair_style gran model hertz tangential history rolling_friction epsd2 #Hertzian with cohesion
WARNING: 
	The contact model you specified is not located in any whitelist.
	Because of this the model will be run in an unoptimized version (increasing runtime by up to 20%).
	In order to optimize this model you have the following options:
		(i)  Run the genAutoExamplesWhitelist.sh script in your LIGGGHTS(R) source folder to automatically parse the input script
		(ii) Add the model combination by hand to your style_contact_model_user.whitelist that can be found in your LIGGGHTS(R) source folder
	If you perform one of the steps above LIGGGHTS(R) needs to be recompiled to generate the optimized code.

 (../contact_models.h:364)
pair_coeff	* *

fix Bsphere all mesh/surface file sphere.stl type 2 scale 0.0125
fix wall all wall/gran model hertz tangential history rolling_friction epsd2 mesh n_meshes 1 meshes Bsphere
WARNING: 
	The contact model you specified is not located in any whitelist.
	Because of this the model will be run in an unoptimized version (increasing runtime by up to 20%).
	In order to optimize this model you have the following options:
		(i)  Run the genAutoExamplesWhitelist.sh script in your LIGGGHTS(R) source folder to automatically parse the input script
		(ii) Add the model combination by hand to your style_contact_model_user.whitelist that can be found in your LIGGGHTS(R) source folder
	If you perform one of the steps above LIGGGHTS(R) needs to be recompiled to generate the optimized code.

 (../contact_models.h:364)

fix pts1 all particletemplate/sphere 15485863 atom_type 2 density constant 2500 radius constant ${r0}
fix pts1 all particletemplate/sphere 15485863 atom_type 2 density constant 2500 radius constant 0.0145
fix pdd1 all particledistribution/discrete 86028157 1 pts1 1

fix ins_mesh all mesh/surface/planar file ins_face.stl heal auto_remove_duplicates type 1 scale 0.0125
fix ins all insert/stream seed 86028121 distributiontemplate pdd1                 maxattempt 200 nparticles 1800 particlerate 180 overlapcheck yes all_in yes vel constant 0 0 -2.0                 insertion_face ins_mesh extrude_length 0.2

#apply nve integration to all particles
fix		integr all nve/sphere
fix		gravi all  gravity 9.81 vector 0.0 0.0 -1.0

#------------------------Output Settings------------------------------------------------------
# Output to screen
compute        ker   all   erotate/sphere            # Compute the rotational kinetic energy of all particles
compute        prs   all   pressure thermo_temp                  # Total pressure on ghost particles
thermo_style	custom step atoms ke c_ker vol c_prs
thermo		${thermofreq}
thermo		1000
thermo_modify	lost ignore norm no
# Output to file
dump		dmp all custom/vtk ${writeOutEvery} post/dump*.sphere.vtk type mass x y z id vx vy vz fx fy fz omegax omegay omegaz radius
dump		dmp all custom/vtk 20000 post/dump*.sphere.vtk type mass x y z id vx vy vz fx fy fz omegax omegay omegaz radius
dump            dumpSphere all stl ${writeOutEvery} post/dump_Sphere*.stl Bsphere
dump            dumpSphere all stl 20000 post/dump_Sphere*.stl Bsphere

#------------------------Run the calculation------------------------------------------------------
# 1. Run first period: relax the system
run		${nStepsRun}
run		1000000
Setting up run at Thu Sep  6 09:52:53 2018

INFO: Particle insertion ins: 18.000000 particles every 10000 steps - particle rate 180.000000, (mass rate 5.746523e+00)
      1800 particles (mass 5.746523e+01) within 1000000 steps
Memory usage per processor = 9.05799 Mbytes
    Step    Atoms         KinEng            ker         Volume            prs 
       0        0              0              0              1              0 
INFO: Particle insertion ins: inserted 18 particle templates (mass 5.746523e-01) at step 1
 - a total of 18 particle templates (mass 5.746523e-01) inserted so far.
    1000       18      1.1493045              0              1              0 
    2000       18      1.1493045              0              1              0 
    3000       18      1.1503012              0              1              0 
    4000       18      1.1630766              0              1              0 
    5000       18      1.1939422              0              1              0 
    6000       18      1.2462769              0              1              0 
    7000       18      1.3244119              0              1              0 
    8000       18      1.4203181              0              1              0 
    9000       18      1.5413527              0              1              0 
   10000       18      1.6739996              0              1              0 
INFO: Particle insertion ins: inserted 18 particle templates (mass 5.746523e-01) at step 10001
 - a total of 36 particle templates (mass 1.149305e+00) inserted so far.
   11000       36      2.9628773              0              1              0 
   12000       36      3.1259239              0              1              0 
   13000       36      3.3060376              0              1              0 
   14000       36      3.5059854              0              1              0 
   15000       36      3.7337267              0              1              0 
   16000       36      3.9832026              0              1              0 
   17000       36      4.2469037              0              1              0 
   18000       36      4.5307375              0              1              0 
   19000       36      4.8410762              0              1              0 
   20000       36       5.169228              0              1              0 
INFO: Particle insertion ins: inserted 18 particle templates (mass 5.746523e-01) at step 20001
 - a total of 54 particle templates (mass 1.723957e+00) inserted so far.
   21000       54      6.4386124   0.0013443074              1              0 
   22000       54      5.9372737   0.0057870363              1     0.17108403 
   23000       54      6.0282765    0.004086467              1              0 
   24000       54      5.4782534   0.0032462058              1    0.077293778 
   25000       54      5.4230661   0.0057195501              1    0.010879285 
   26000       54      4.5693483   0.0062270411              1              0 
   27000       54      4.7746472   0.0048650436              1     0.17212673 
   28000       54      4.8508834   0.0041808873              1 -0.00028676971 
   29000       54       4.547988    0.012496598              1      1.3434798 
   30000       54      4.4255741    0.014771983              1     0.44964706 
INFO: Particle insertion ins: inserted 18 particle templates (mass 5.746523e-01) at step 30001
 - a total of 72 particle templates (mass 2.298609e+00) inserted so far.
   31000       72      5.5038787    0.020756657              1     0.12055161 
   32000       72      5.2045253    0.028178758              1     0.71286714 
   33000       72      4.7902638    0.018443751              1     0.45000065 
   34000       72      4.8881213    0.021620854              1     0.15204615 
   35000       72      4.6222936    0.015209834              1     0.11717825 
   36000       72      4.3179066     0.01942148              1     0.44554232 
   37000       72      4.4681571    0.013831781              1     0.24935931 
   38000       72      4.7239059    0.010103426              1  -0.0083959311 
   39000       72      4.5882225    0.014190404              1     0.79639925 
   40000       72      4.8299414    0.010086774              1     0.24187311 
INFO: Particle insertion ins: inserted 18 particle templates (mass 5.746523e-01) at step 40001
 - a total of 90 particle templates (mass 2.873261e+00) inserted so far.
   41000       90      5.9693009    0.016276409              1     0.06499255 
   42000       90      5.7362777    0.015897071              1     0.72329006 
   43000       90      5.3078707    0.016306756              1     0.44079888 
   44000       90      4.9248604    0.026737573              1     0.71410466 
   45000       90      4.3974964    0.025968605              1      0.7238779 
   46000       90       4.318194    0.021492418              1     0.29886388 
   47000       90      4.4340679    0.010265045              1     0.12479308 
   48000       90      4.4897667     0.01541763              1     0.95375259 
   49000       90      4.1449379    0.023703701              1      0.4412521 
   50000       90      4.2554358    0.016015905              1      0.1914926 
INFO: Particle insertion ins: inserted 18 particle templates (mass 5.746523e-01) at step 50001
 - a total of 108 particle templates (mass 3.447914e+00) inserted so far.
   51000      108      5.5424192     0.01528353              1     0.49237857 
   52000      108      5.5476109    0.016311933              1    0.045217479 
   53000      108      5.3958152    0.022465028              1     0.58663417 
   54000      108      4.7886852    0.027836397              1      1.0203388 
   55000      108      4.7440596    0.017099013              1     0.75833599 
   56000      108      4.6430391    0.018010233              1     0.35821794 
   57000      108      4.5124721    0.018876111              1     0.45434688 
   58000      108      4.5901677    0.016795545              1     0.20128088 
   59000      108      4.4850235    0.019877762              1       1.004653 
   60000      108      4.2973748    0.016528621              1     0.61160194 
INFO: Particle insertion ins: inserted 18 particle templates (mass 5.746523e-01) at step 60001
 - a total of 126 particle templates (mass 4.022566e+00) inserted so far.
   61000      126      5.1625033    0.020753801              1       1.047096 
   62000      126      5.2177985    0.016351637              1     0.43177179 
   63000      126       5.254971     0.01358654              1      0.3737617 
   64000      126      5.1315733    0.016015277              1     0.60707071 
   65000      126      4.5623415    0.021105517              1     0.71870176 
   66000      126      4.4158529    0.018230274              1     0.92833043 
   67000      126      4.5057194    0.019368553              1     0.55362828 
   68000      126      4.5889078    0.014677558              1     0.60549717 
   69000      126      4.4610394    0.016317053              1     0.85360587 
   70000      126      4.3793893      0.0182628              1      1.0757753 
INFO: Particle insertion ins: inserted 18 particle templates (mass 5.746523e-01) at step 70001
 - a total of 144 particle templates (mass 4.597218e+00) inserted so far.
   71000      144      5.4971559    0.014185196              1     0.97874267 
   72000      144      5.0926155    0.022034453              1     0.84309277 
   73000      144      5.1832909    0.018700516              1     0.51420602 
   74000      144      4.9636269    0.016761994              1     0.54258512 
   75000      144      4.3192331    0.019118529              1      1.5770244 
   76000      144      4.2747241    0.015029764              1     0.86514759 
   77000      144      4.4473508    0.010357078              1     0.38546888 
   78000      144        4.54675    0.012847832              1     0.42400088 
   79000      144       4.591765    0.012246781              1     0.36210543 
   80000      144      4.4068389    0.017080521              1      1.6213881 
INFO: Particle insertion ins: inserted 18 particle templates (mass 5.746523e-01) at step 80001
 - a total of 162 particle templates (mass 5.171870e+00) inserted so far.
   81000      162      5.1539467     0.01867207              1      1.6139066 
   82000      162      5.1752764    0.015431845              1      1.0515799 
   83000      162      4.7078906    0.020075338              1      1.9503045 
   84000      162      4.8213911    0.015886872              1     0.70604459 
   85000      162      4.3291195    0.022440843              1      1.5923994 
   86000      162      4.3047161    0.016865093              1     0.93131947 
   87000      162      4.4735481    0.014358997              1     0.25575843 
   88000      162      4.3934905    0.021078671              1      0.8583676 
   89000      162      4.3868563       0.020635              1     0.69085008 
   90000      162      4.5231312    0.015669342              1     0.83555828 
INFO: Particle insertion ins: inserted 18 particle templates (mass 5.746523e-01) at step 90001
 - a total of 180 particle templates (mass 5.746523e+00) inserted so far.
   91000      180      5.2623422    0.014146669              1      1.9836645 
   92000      180      5.3857314    0.012398787              1     0.83906345 
   93000      180      5.0194997    0.014158346              1      2.7321084 
   94000      180      4.6130931     0.02271531              1      1.7209501 
   95000      180      4.6780389    0.013178876              1     0.78645474 
   96000      180      4.5585066    0.013383487              1     0.99865238 
   97000      180      4.5708703    0.011800981              1     0.79481437 
   98000      180      4.3495171    0.014283179              1      1.8534131 
   99000      180      4.1914383    0.020666266              1      2.6399956 
  100000      180      3.8065822    0.023553546              1      1.5657787 
INFO: Particle insertion ins: inserted 18 particle templates (mass 5.746523e-01) at step 100001
 - a total of 198 particle templates (mass 6.321175e+00) inserted so far.
  101000      198      5.0061459    0.017272959              1      0.7664938 
  102000      198      4.9669783    0.020024948              1      1.9689839 
  103000      198      4.6727506    0.024518111              1      1.6560902 
  104000      198      4.2634141    0.024666772              1      2.4541596 
  105000      198      4.1276736    0.017106683              1       2.045198 
  106000      198      4.2098782    0.011227854              1      1.0406427 
  107000      198      4.3547387    0.012437662              1     0.88280488 
  108000      198      4.1371712     0.01692433              1      1.8139954 
  109000      198      4.0694313    0.012047403              1      1.9795178 
  110000      198      3.7882729    0.015587939              1      2.9805584 
INFO: Particle insertion ins: inserted 18 particle templates (mass 5.746523e-01) at step 110001
 - a total of 216 particle templates (mass 6.895827e+00) inserted so far.
  111000      216      4.9594926    0.010344996              1      1.5508303 
  112000      216       4.873045    0.013199167              1      1.2884343 
  113000      216      4.7944232    0.020751993              1      1.6296729 
  114000      216      4.6651934    0.020945155              1      1.8282627 
  115000      216      4.2126415    0.027142753              1      3.2714457 
  116000      216      4.2231505    0.020323809              1       1.446696 
  117000      216      4.4284688    0.016501569              1      0.6688155 
  118000      216      4.7002062    0.014208733              1      0.6078959 
  119000      216      4.3381343    0.020972052              1      2.6079439 
  120000      216      4.0437734    0.019255489              1      2.7479512 
INFO: Particle insertion ins: inserted 18 particle templates (mass 5.746523e-01) at step 120001
 - a total of 234 particle templates (mass 7.470480e+00) inserted so far.
  121000      234      4.5124163    0.026743866              1      3.8973122 
  122000      234      4.3109077    0.018207028              1      1.6734253 
  123000      234       4.493093    0.014491251              1     0.60703754 
  124000      234      4.5058037    0.013394139              1      1.7634934 
  125000      234      4.2649572    0.016434747              1      2.2518702 
  126000      234      4.2202377    0.012071375              1      1.5384573 
  127000      234      4.4581395    0.010859627              1     0.96740029 
  128000      234      4.4919024    0.014647457              1      1.6236979 
  129000      234      4.4567342    0.012023519              1      1.7416244 
  130000      234      4.5335446   0.0094806319              1      1.7329321 
INFO: Particle insertion ins: inserted 18 particle templates (mass 5.746523e-01) at step 130001
 - a total of 252 particle templates (mass 8.045132e+00) inserted so far.
  131000      252        5.16454    0.019335867              1      3.6111556 
  132000      252      4.9287545    0.022415709              1      3.2194752 
  133000      252       4.672592    0.020953854              1      2.9911758 
  134000      252      4.2656449    0.018366421              1      2.3463897 
  135000      252      4.2680002    0.012906724              1      1.5461332 
  136000      252      4.3402147    0.015304847              1      1.4730656 
  137000      252      4.4136697    0.013334028              1      2.4099977 
  138000      252      3.8875483    0.022195616              1      3.7434778 
  139000      252      3.6520415    0.019620774              1      3.5147081 
  140000      252      3.6406304    0.015233133              1      2.0352869 
INFO: Particle insertion ins: inserted 18 particle templates (mass 5.746523e-01) at step 140001
 - a total of 270 particle templates (mass 8.619784e+00) inserted so far.
  141000      270      4.8865907    0.017157752              1      1.3067964 
  142000      270      4.2898444     0.02577389              1      3.6817765 
  143000      270       4.192565     0.01939713              1      3.1853794 
  144000      270      4.1341998    0.015656913              1      2.0649516 
  145000      270      4.0558036    0.010178994              1      2.2171328 
  146000      270      4.2247615   0.0072244692              1      1.5816873 
  147000      270      4.2765249    0.013307838              1      1.4547406 
  148000      270      4.1141346   0.0099254692              1      2.4879363 
  149000      270      3.9819469    0.011659287              1      2.7653373 
  150000      270       4.180121   0.0068724512              1      1.7825898 
INFO: Particle insertion ins: inserted 18 particle templates (mass 5.746523e-01) at step 150001
 - a total of 288 particle templates (mass 9.194436e+00) inserted so far.
  151000      288      4.8367529    0.022493394              1      3.5930803 
  152000      288       4.595348    0.021912465              1      3.7607485 
  153000      288      4.3273152    0.019466343              1       2.427419 
  154000      288      4.0160393    0.015416909              1      3.2661776 
  155000      288      3.9423413    0.011642656              1      2.5358017 
  156000      288      4.1268644   0.0086332722              1      1.3949999 
  157000      288      4.3549497   0.0068096298              1      1.4057551 
  158000      288      4.1873346    0.014535406              1      3.3486848 
  159000      288      3.7457518    0.022200609              1      4.5986166 
  160000      288      3.5623274    0.021202196              1      3.0092195 
INFO: Particle insertion ins: inserted 18 particle templates (mass 5.746523e-01) at step 160001
 - a total of 306 particle templates (mass 9.769089e+00) inserted so far.
  161000      306       4.804087    0.018199729              1      1.8246663 
  162000      306      4.8042912    0.012800631              1      2.1364353 
  163000      306      4.8245457    0.015775471              1      2.5855297 
  164000      306      4.6318579    0.016900781              1      3.0931965 
  165000      306      4.3027287    0.024942274              1      4.5119224 
  166000      306      4.1801471    0.015549707              1      3.3993682 
  167000      306      4.1057136    0.018098566              1      2.8201552 
  168000      306      3.8114066    0.019833151              1      3.7250304 
  169000      306      3.6454196    0.017403483              1      3.7072051 
  170000      306      3.7493363    0.013466818              1       2.486602 
INFO: Particle insertion ins: inserted 18 particle templates (mass 5.746523e-01) at step 170001
 - a total of 324 particle templates (mass 1.034374e+01) inserted so far.
  171000      324       4.976196    0.014235281              1      2.0799355 
  172000      324      4.6444087    0.016489599              1      3.9989453 
  173000      324      4.4423466     0.01264684              1      4.3579778 
  174000      324      4.0377595    0.019150284              1      4.1059086 
  175000      324      3.9653297    0.014652173              1      2.8157261 
  176000      324      4.1544361    0.011753562              1      1.7628814 
  177000      324      4.2221259    0.011505514              1        2.63426 
  178000      324      4.1006717    0.011701868              1      3.9182584 
  179000      324      4.1372277   0.0092565764              1      3.3011086 
  180000      324      4.0516733    0.013617772              1      3.5503306 
INFO: Particle insertion ins: inserted 18 particle templates (mass 5.746523e-01) at step 180001
 - a total of 342 particle templates (mass 1.091839e+01) inserted so far.
  181000      342      5.0792109     0.01364393              1      3.4332148 
  182000      342      4.6578078    0.019275409              1      4.6440985 
  183000      342      4.6350492    0.016914634              1      3.5825194 
  184000      342      4.3410307    0.016510752              1       3.162244 
  185000      342      4.1330312    0.017955239              1      3.8951574 
  186000      342      4.2069124    0.019168615              1      2.7365255 
  187000      342       4.250321    0.020822092              1       2.457073 
  188000      342      3.9217816    0.023730247              1      4.9526214 
  189000      342       3.542715    0.022594813              1      5.3777191 
  190000      342      3.5814995    0.022589962              1       2.863914 
INFO: Particle insertion ins: inserted 18 particle templates (mass 5.746523e-01) at step 190001
 - a total of 360 particle templates (mass 1.149305e+01) inserted so far.
  191000      360      4.7821264    0.021904174              1       2.514117 
  192000      360      4.5033213    0.026430426              1      4.0647638 
  193000      360      4.3371384    0.022283525              1      4.3580386 
  194000      360      4.4009207    0.020017952              1      3.6343972 
  195000      360      4.2529136    0.023143747              1      3.4362823 
  196000      360      4.3188599    0.013242281              1      3.7511606 
  197000      360      4.4014438     0.01288668              1      3.4454549 
  198000      360      4.3965856    0.016671469              1      3.8067929 
  199000      360      3.8707301    0.026493778              1      6.6241718 
  200000      360      3.6086147    0.018798476              1      4.6792655 
INFO: Particle insertion ins: inserted 18 particle templates (mass 5.746523e-01) at step 200001
 - a total of 378 particle templates (mass 1.206770e+01) inserted so far.
  201000      378      4.5792792    0.015975543              1      3.0970652 
  202000      378      4.4176967    0.016164229              1      3.8820282 
  203000      378       3.961423    0.017377338              1      4.8987205 
  204000      378      3.9924527    0.012981395              1       3.853099 
  205000      378      4.1308249    0.010368936              1      2.6979256 
  206000      378      4.3704497   0.0084335113              1      2.4997526 
  207000      378      4.0537124    0.016112832              1      5.6224171 
  208000      378       3.672189    0.022390187              1      6.5083924 
  209000      378      3.5063473    0.017152441              1       5.397183 
  210000      378      3.1538814    0.014718193              1      4.7179579 
INFO: Particle insertion ins: inserted 18 particle templates (mass 5.746523e-01) at step 210001
 - a total of 396 particle templates (mass 1.264235e+01) inserted so far.
  211000      396      4.1459526    0.016621581              1      4.0394985 
  212000      396      4.0570376    0.018553347              1      3.9729564 
  213000      396      3.8460705    0.020549551              1      4.8310619 
  214000      396      3.8351509     0.01636505              1      4.2625292 
  215000      396      4.0459216    0.013314039              1      2.7689902 
  216000      396      4.1501135    0.015448084              1      3.1583202 
  217000      396       4.116333    0.016121204              1      4.8021392 
  218000      396      3.8858869    0.016476969              1      6.0716867 
  219000      396      3.8706663    0.019958044              1      4.8869253 
  220000      396      3.4282622     0.02193918              1      5.4086396 
INFO: Particle insertion ins: inserted 18 particle templates (mass 5.746523e-01) at step 220001
 - a total of 414 particle templates (mass 1.321700e+01) inserted so far.
  221000      414      4.3249568    0.028139286              1      5.5323949 
  222000      414      4.2150021    0.019600794              1      4.5096613 
  223000      414      4.1896841    0.023043428              1      3.8032912 
  224000      414      4.0620569    0.021025278              1       4.702089 
  225000      414      4.1332987    0.016364164              1      4.6209768 
  226000      414      4.1907101     0.01116125              1      4.5880406 
  227000      414      4.1509585     0.01612125              1      4.9452126 
  228000      414      3.4573687    0.020430484              1       6.929066 
  229000      414      3.2819446    0.017791432              1      5.5102804 
  230000      414       3.387468    0.013543718              1      3.1890963 
INFO: Particle insertion ins: inserted 18 particle templates (mass 5.746523e-01) at step 230001
 - a total of 432 particle templates (mass 1.379165e+01) inserted so far.
  231000      432      4.5180388    0.015328074              1      3.1920788 
  232000      432      4.0211646    0.020591834              1      6.3265938 
  233000      432      4.0705729    0.014843153              1      5.4329655 
  234000      432      3.9266906     0.01463963              1       4.593742 
  235000      432      4.0718849    0.011222539              1      3.5155795 
  236000      432      4.2762239   0.0095560056              1      3.5246473 
  237000      432      3.7156091    0.023159205              1      7.5656607 
  238000      432      3.4931613    0.024308669              1       7.133065 
  239000      432      3.4340388    0.022288689              1      5.1184941 
  240000      432      3.2389685     0.02504968              1      4.9672858 
INFO: Particle insertion ins: inserted 18 particle templates (mass 5.746523e-01) at step 240001
 - a total of 450 particle templates (mass 1.436631e+01) inserted so far.
  241000      450        4.17146     0.01820792              1      5.8231621 
  242000      450      4.2850681    0.011327475              1      4.7420953 
  243000      450      4.2915469    0.012407646              1      4.9186008 
  244000      450      4.1606743    0.013225157              1      5.6813485 
  245000      450      4.0403494    0.008172135              1      5.7627676 
  246000      450      3.9293282    0.016030284              1      5.7868391 
  247000      450      3.4893774     0.01254493              1      6.7459374 
  248000      450      3.2757048    0.013289227              1      6.4914882 
  249000      450      3.3071152    0.012204749              1      5.1672346 
  250000      450      3.3088342   0.0092770062              1      4.9136592 
INFO: Particle insertion ins: inserted 18 particle templates (mass 5.746523e-01) at step 250001
 - a total of 468 particle templates (mass 1.494096e+01) inserted so far.
  251000      468      4.3893951    0.013918962              1       5.263721 
  252000      468       4.363236    0.012541648              1      5.7266539 
  253000      468      4.2145927    0.013090884              1      6.0989028 
  254000      468      3.9059749    0.016851839              1      6.3778258 
  255000      468      3.9444446    0.016462326              1      5.6174137 
  256000      468      4.0634361    0.012363156              1       4.399375 
  257000      468      3.7667513    0.017269441              1      6.6433417 
  258000      468      3.5968783    0.017543015              1        7.03256 
  259000      468       3.399872    0.019986531              1      6.8300965 
  260000      468      3.3435246    0.020149944              1       5.810953 
INFO: Particle insertion ins: inserted 18 particle templates (mass 5.746523e-01) at step 260001
 - a total of 486 particle templates (mass 1.551561e+01) inserted so far.
  261000      486      4.2912253    0.015786584              1      6.5622985 
  262000      486      3.8825887     0.02073142              1      7.3916054 
  263000      486      3.8866117    0.016212347              1      5.8100186 
  264000      486      3.7723885    0.014874091              1      5.3432487 
  265000      486      3.8181953   0.0092336715              1      5.1443805 
  266000      486      3.8590845   0.0092574399              1      4.7474521 
  267000      486      3.8330306   0.0098357467              1      6.1252832 
  268000      486      3.7397938    0.010956095              1      6.8674816 
  269000      486      3.6452806    0.012420321              1       6.540182 
  270000      486      3.6729523    0.010464545              1      5.9910345 
INFO: Particle insertion ins: inserted 18 particle templates (mass 5.746523e-01) at step 270001
 - a total of 504 particle templates (mass 1.609026e+01) inserted so far.
  271000      504      4.7438831    0.011118242              1      6.4607523 
  272000      504      4.5718218    0.010194539              1      6.5867981 
  273000      504      3.9954046    0.022928749              1      9.1103785 
  274000      504      3.7391305    0.015705749              1      7.8776294 
  275000      504      3.8577791    0.011996494              1      5.1578784 
  276000      504       3.593194    0.015098697              1      5.9046828 
  277000      504      3.4347465    0.015728549              1      7.0124166 
  278000      504      3.4767976    0.010134361              1      6.9149391 
  279000      504      3.6774069    0.007927727              1      5.4431323 
  280000      504      3.5575851   0.0085220066              1      6.5938778 
INFO: Particle insertion ins: inserted 18 particle templates (mass 5.746523e-01) at step 280001
 - a total of 522 particle templates (mass 1.666492e+01) inserted so far.
  281000      522      4.6273313    0.012173983              1      7.1645686 
  282000      522      4.4999887    0.017394068              1      7.0041315 
  283000      522      4.1942553    0.021388311              1      8.0523948 
  284000      522      3.7111003     0.02194007              1      9.6389916 
  285000      522      3.7846197    0.011099945              1      6.7255421 
  286000      522      3.8412783    0.009902652              1      5.1226397 
  287000      522      3.8339225     0.01108468              1      5.5317379 
  288000      522      3.8679822    0.013454005              1      6.7419248 
  289000      522      3.6228313    0.014725032              1      8.3818689 
  290000      522      3.6905196    0.012380718              1      7.5630141 
INFO: Particle insertion ins: inserted 18 particle templates (mass 5.746523e-01) at step 290001
 - a total of 540 particle templates (mass 1.723957e+01) inserted so far.
  291000      540      4.5425822    0.015222662              1      7.7140464 
  292000      540      4.5717179    0.013223653              1      6.1587264 
  293000      540      4.2706008    0.020177225              1      7.3126336 
  294000      540      3.7904995    0.021115809              1      9.3586681 
  295000      540      3.7252377    0.013179491              1      8.1519671 
  296000      540      3.6822719    0.012013399              1      6.8782617 
  297000      540      3.5443298     0.01119168              1       6.825419 
  298000      540      3.6483604    0.011410489              1       6.238145 
  299000      540      3.7396851   0.0093945395              1      6.7082663 
  300000      540       3.709836   0.0092950797              1      7.3837188 
INFO: Particle insertion ins: inserted 18 particle templates (mass 5.746523e-01) at step 300001
 - a total of 558 particle templates (mass 1.781422e+01) inserted so far.
  301000      558      4.6604717    0.013771933              1      8.4579566 
  302000      558      4.4409088    0.013919988              1      8.5074291 
  303000      558      3.9010559     0.02263052              1      10.064111 
  304000      558      3.7873568    0.019105266              1      7.8150067 
  305000      558      3.9158989    0.015681021              1      6.0322204 
  306000      558      3.9915138    0.013347598              1      5.4569322 
  307000      558      3.9713994    0.015805249              1      6.7664055 
  308000      558      3.9164923    0.014993055              1      8.2276619 
  309000      558      3.8535318    0.012593204              1      8.9339821 
  310000      558      3.1240596    0.023475679              1      11.102362 
INFO: Particle insertion ins: inserted 18 particle templates (mass 5.746523e-01) at step 310001
 - a total of 576 particle templates (mass 1.838887e+01) inserted so far.
  311000      576      3.9671808    0.020718174              1      10.540197 
  312000      576      3.7996924    0.019743888              1      7.8520154 
  313000      576      3.7031707    0.017911632              1      7.0684043 
  314000      576      3.7165978    0.016735485              1      6.2943777 
  315000      576      3.8380899    0.013494526              1       6.538761 
  316000      576      3.7374748    0.014828944              1      7.8590983 
  317000      576      3.7257045    0.014754949              1      8.2392563 
  318000      576      3.5230542      0.0198664              1      9.0141859 
  319000      576      3.3476895    0.020938436              1      8.6851982 
  320000      576      3.0312534    0.022671646              1      9.9461184 
INFO: Particle insertion ins: inserted 18 particle templates (mass 5.746523e-01) at step 320001
 - a total of 594 particle templates (mass 1.896353e+01) inserted so far.
  321000      594      3.9862689    0.019667969              1      9.0656365 
  322000      594      3.8557673    0.015126279              1      8.9181715 
  323000      594      3.5818862    0.014631688              1      8.7334167 
  324000      594      3.5605071    0.010582124              1      7.8533232 
  325000      594      3.6917467   0.0082742358              1      6.3002608 
  326000      594      3.8259701   0.0090618929              1      6.3296652 
  327000      594       3.949549   0.0083775831              1      7.6434118 
  328000      594      4.0164411   0.0073018429              1      8.2988927 
  329000      594      3.8357499    0.011233795              1       9.222222 
  330000      594      3.8561078   0.0088131973              1      8.3227013 
INFO: Particle insertion ins: inserted 18 particle templates (mass 5.746523e-01) at step 330001
 - a total of 612 particle templates (mass 1.953818e+01) inserted so far.
  331000      612      4.6083956    0.016890512              1       10.42801 
  332000      612      4.2119027    0.022183897              1      11.458191 
  333000      612      3.7705881    0.016528221              1      10.839086 
  334000      612      3.7358162    0.015340257              1      8.4555429 
  335000      612       3.791484    0.011834331              1      7.0207459 
  336000      612      3.8460886    0.012451387              1      7.2523537 
  337000      612      3.9731435   0.0090266543              1      7.9385852 
  338000      612      3.7974453    0.020023607              1      9.9981575 
  339000      612      3.6848932    0.018486944              1      10.454894 
  340000      612      3.2492144    0.023646658              1      11.874547 
INFO: Particle insertion ins: inserted 18 particle templates (mass 5.746523e-01) at step 340001
 - a total of 630 particle templates (mass 2.011283e+01) inserted so far.
  341000      630      4.1836044    0.021029131              1      10.341409 
  342000      630      4.1420845    0.016716092              1      8.3991837 
  343000      630      3.8653879    0.022123298              1      8.1500176 
  344000      630      3.8094118    0.019231695              1      8.7712411 
  345000      630      3.9569559    0.012231067              1      7.7871396 
  346000      630      3.5717549    0.024336646              1      9.4085448 
  347000      630      3.4201977      0.0204057              1      10.230311 
  348000      630      3.1587267    0.022704123              1      11.127403 
  349000      630      3.2292743    0.019183266              1      9.1447199 
  350000      630      3.3866924    0.018165392              1       7.141147 
INFO: Particle insertion ins: inserted 18 particle templates (mass 5.746523e-01) at step 350001
 - a total of 648 particle templates (mass 2.068748e+01) inserted so far.
  351000      648      4.4637494     0.01933891              1      8.2855118 
  352000      648      4.2856681    0.016497465              1      10.329066 
  353000      648      3.8063124    0.015171685              1      12.581379 
  354000      648       3.778587    0.014281025              1      9.7796873 
  355000      648      3.8656478    0.015948177              1      7.5021305 
  356000      648      3.7365203    0.013400798              1      8.0651785 
  357000      648      3.3691864    0.011893974              1       10.66307 
  358000      648      3.3398413    0.011110863              1      11.358523 
  359000      648      3.3523777    0.010289719              1      10.415952 
  360000      648      3.1401983    0.012659795              1      9.8771207 
INFO: Particle insertion ins: inserted 18 particle templates (mass 5.746523e-01) at step 360001
 - a total of 666 particle templates (mass 2.126213e+01) inserted so far.
  361000      666      4.2525645    0.012309091              1      9.1888679 
  362000      666        3.97142    0.012289893              1      10.626519 
  363000      666      3.8781498    0.010196728              1      10.552571 
  364000      666      3.7720029     0.01339473              1      10.480243 
  365000      666      3.9268075    0.010375614              1      8.6405222 
  366000      666      3.7574147    0.010746154              1      9.8898902 
  367000      666      3.4138739     0.01421861              1      12.190911 
  368000      666      3.2507658    0.015445347              1      11.750461 
  369000      666      3.3904971     0.01070145              1      9.5741703 
  370000      666      3.2868117    0.021346584              1      9.2036251 
INFO: Particle insertion ins: inserted 18 particle templates (mass 5.746523e-01) at step 370001
 - a total of 684 particle templates (mass 2.183679e+01) inserted so far.
  371000      684      4.0421914    0.014862899              1      11.536025 
  372000      684      3.9872385     0.01609946              1      11.671434 
  373000      684      3.7570102    0.014498183              1      11.350946 
  374000      684      3.8406002    0.011451933              1      9.4906234 
  375000      684      3.9048531    0.012122455              1      8.9692113 
  376000      684      3.9282521    0.009256092              1      9.4901476 
  377000      684        3.72495    0.016812604              1      10.860639 
  378000      684       3.330927    0.023074371              1      13.312668 
  379000      684      3.0950938    0.020926855              1      13.150292 
  380000      684      3.2181948    0.017059093              1      9.6345757 
INFO: Particle insertion ins: inserted 18 particle templates (mass 5.746523e-01) at step 380001
 - a total of 702 particle templates (mass 2.241144e+01) inserted so far.
  381000      702      4.2465327    0.017950478              1      8.7835279 
  382000      702      4.0505689    0.020485927              1      10.792863 
  383000      702      3.8141581    0.014599821              1      12.629662 
  384000      702      3.9653084    0.011712119              1      11.162277 
  385000      702      3.8808473    0.017842803              1      10.849855 
  386000      702        3.40031    0.024315097              1      12.567749 
  387000      702      2.8238789    0.026920815              1      14.828077 
  388000      702      2.5720941    0.023170315              1       13.11231 
  389000      702      2.5829887    0.022317507              1      10.078537 
  390000      702      2.6349043    0.019066601              1      8.3392955 
INFO: Particle insertion ins: inserted 18 particle templates (mass 5.746523e-01) at step 390001
 - a total of 720 particle templates (mass 2.298609e+01) inserted so far.
  391000      720      3.9181495     0.01536574              1      8.3897501 
  392000      720      3.9914158    0.014215805              1      9.3065632 
  393000      720      3.8669245    0.013993652              1      11.715946 
  394000      720      3.8026434    0.012219295              1      13.222023 
  395000      720      3.6543268    0.018145022              1      12.887864 
  396000      720      3.2343115    0.019711631              1      13.201707 
  397000      720      3.3570206    0.011631385              1      10.915484 
  398000      720      3.2912653    0.013472905              1      10.648636 
  399000      720      2.9528489    0.016753594              1      12.459981 
  400000      720      3.1065355    0.013328958              1      10.994177 
INFO: Particle insertion ins: inserted 18 particle templates (mass 5.746523e-01) at step 400001
 - a total of 738 particle templates (mass 2.356074e+01) inserted so far.
  401000      738      4.0756706    0.016300125              1      11.098603 
  402000      738      3.8812138    0.017841632              1      11.648213 
  403000      738      3.7717554    0.017800564              1      12.405997 
  404000      738      3.8859945    0.014006009              1      11.906749 
  405000      738      3.8751848    0.015408167              1      11.506653 
  406000      738      3.7266366    0.013917186              1       12.29032 
  407000      738      3.7001214     0.01886161              1      11.855621 
  408000      738       3.496178     0.02049895              1      13.169433 
  409000      738       3.016857    0.020461096              1      15.271284 
  410000      738      2.4379273    0.024266573              1      15.992065 
INFO: Particle insertion ins: inserted 18 particle templates (mass 5.746523e-01) at step 410001
 - a total of 756 particle templates (mass 2.413540e+01) inserted so far.
  411000      756      3.6547344     0.01940031              1      12.328888 
  412000      756       3.750873    0.017803748              1      9.6221822 
  413000      756      3.7757484    0.014904542              1      9.3608557 
  414000      756      3.8824497    0.014243386              1      9.8691842 
  415000      756      3.5413199    0.023170371              1      13.389804 
  416000      756      3.1768701    0.021007199              1      15.541357 
  417000      756      2.9954073    0.017603559              1      15.141335 
  418000      756      2.8199763    0.019105852              1      12.686614 
  419000      756      2.7212174    0.014464313              1      11.146848 
  420000      756      2.6086806    0.017338433              1      11.609045 
INFO: Particle insertion ins: inserted 18 particle templates (mass 5.746523e-01) at step 420001
 - a total of 774 particle templates (mass 2.471005e+01) inserted so far.
  421000      774      3.3046253     0.01964715              1      13.914146 
  422000      774      3.2899255    0.014402444              1       14.19384 
  423000      774      3.3965097   0.0095811618              1      12.568368 
  424000      774      3.5597027   0.0085926234              1      10.312892 
  425000      774      3.6584465    0.012044638              1      10.158941 
  426000      774      3.8067199   0.0098457025              1      11.143678 
  427000      774      3.7492703   0.0087407168              1      13.265678 
  428000      774      3.7537973   0.0088511926              1      14.087294 
  429000      774      3.5140402    0.012559224              1      15.169711 
  430000      774       3.128087   0.0097278517              1       16.11198 
INFO: Particle insertion ins: inserted 18 particle templates (mass 5.746523e-01) at step 430001
 - a total of 792 particle templates (mass 2.528470e+01) inserted so far.
  431000      792      4.1516308   0.0098112717              1      14.035034 
  432000      792      4.0127727    0.012002219              1      13.140822 
  433000      792      3.7040895    0.012860996              1      13.482387 
  434000      792      3.7321377    0.010391459              1       12.99173 
  435000      792      3.6961757    0.011438687              1      13.005553 
  436000      792      3.4757034    0.011995859              1      13.803671 
  437000      792      3.2855969    0.021191436              1      14.762178 
  438000      792      3.0719652    0.019539324              1      14.966007 
  439000      792      2.9178103    0.017185793              1      14.414978 
  440000      792      2.8463139    0.020385987              1      13.282256 
INFO: Particle insertion ins: inserted 18 particle templates (mass 5.746523e-01) at step 440001
 - a total of 810 particle templates (mass 2.585935e+01) inserted so far.
  441000      810      3.7935166    0.020725643              1      13.906719 
  442000      810      3.7441738    0.019215388              1      13.460344 
  443000      810      3.7136373    0.020000782              1       13.29952 
  444000      810      3.8663332    0.015622746              1       12.53119 
  445000      810      3.6720663    0.017369874              1      13.754171 
  446000      810      3.5187672    0.017804899              1      14.316771 
  447000      810      3.3587796    0.016574318              1       15.47044 
  448000      810      2.8855233    0.021765308              1       16.84876 
  449000      810      2.8349555    0.016086951              1      14.915435 
  450000      810      2.6746233    0.021759123              1      14.032867 
INFO: Particle insertion ins: inserted 18 particle templates (mass 5.746523e-01) at step 450001
 - a total of 828 particle templates (mass 2.643400e+01) inserted so far.
  451000      828      3.6343418    0.019269666              1      14.058122 
  452000      828      3.4984243    0.017256817              1      13.952666 
  453000      828      3.5552827    0.013395635              1      13.177121 
  454000      828      3.6441856    0.014094236              1      12.561639 
  455000      828      3.4593993    0.015934126              1      14.112062 
  456000      828      3.2858522    0.019795238              1      15.351366 
  457000      828      3.2076831    0.015265876              1      15.016148 
  458000      828      3.0351913    0.012204691              1      14.320877 
  459000      828      3.1004368    0.010749881              1      12.910684 
  460000      828      2.7438761    0.018307353              1      15.001972 
INFO: Particle insertion ins: inserted 18 particle templates (mass 5.746523e-01) at step 460001
 - a total of 846 particle templates (mass 2.700866e+01) inserted so far.
  461000      846      3.7044182    0.015603606              1      15.526213 
  462000      846      3.6549028    0.014474365              1      15.760803 
  463000      846      3.4549832      0.0149595              1      15.482276 
  464000      846      3.5717634    0.010864729              1      13.310863 
  465000      846      3.6640629    0.014047643              1      12.743318 
  466000      846      3.5340468    0.012750467              1      14.446877 
  467000      846      3.5428384    0.012510093              1      15.260021 
  468000      846      3.6100954    0.016275133              1      14.539059 
  469000      846      3.5432411    0.013879489              1      14.435001 
  470000      846      3.3487087    0.022333737              1      15.456341 
INFO: Particle insertion ins: inserted 18 particle templates (mass 5.746523e-01) at step 470001
 - a total of 864 particle templates (mass 2.758331e+01) inserted so far.
  471000      864      4.2244148    0.024590188              1      16.678507 
  472000      864      3.9132876    0.022121013              1       17.19303 
  473000      864      3.6112702     0.01728671              1      16.669589 
  474000      864      3.7652599    0.011566132              1      13.432684 
  475000      864      3.8201764    0.011471704              1      12.469722 
  476000      864      3.6609792    0.018066912              1      13.996233 
  477000      864      3.5814308    0.014690613              1      15.719711 
  478000      864      3.4293285     0.01770356              1      16.401023 
  479000      864      3.0940852     0.01740492              1       17.89137 
  480000      864      2.6923037    0.019073851              1      17.796464 
INFO: Particle insertion ins: inserted 18 particle templates (mass 5.746523e-01) at step 480001
 - a total of 882 particle templates (mass 2.815796e+01) inserted so far.
  481000      882      3.7579039    0.015923019              1      16.473722 
  482000      882      3.7173988    0.013214852              1      14.479974 
  483000      882      3.7037069    0.012201929              1      13.938348 
  484000      882      3.8125684   0.0094956489              1      13.969144 
  485000      882      3.4648103    0.014908942              1      17.036367 
  486000      882      3.0071455     0.01886395              1      18.859969 
  487000      882      2.9541658    0.017480847              1      17.499392 
  488000      882      2.8594761    0.016764326              1      16.397085 
  489000      882      2.8283068    0.017037932              1      14.904924 
  490000      882      2.4738601    0.017277313              1      16.090248 
INFO: Particle insertion ins: inserted 18 particle templates (mass 5.746523e-01) at step 490001
 - a total of 900 particle templates (mass 2.873261e+01) inserted so far.
  491000      900      3.4764537    0.016116514              1      16.504087 
  492000      900        3.41252    0.014858865              1      16.801197 
  493000      900      3.5566164    0.010018754              1      15.683845 
  494000      900        3.53797    0.012511821              1      14.995831 
  495000      900      3.5172824    0.013269652              1      14.988875 
  496000      900      3.4794092    0.019326133              1      16.053394 
  497000      900      3.4263015    0.018167909              1      17.009515 
  498000      900      3.2789646    0.021759299              1       17.35017 
  499000      900      2.9815242    0.019023298              1      18.422761 
  500000      900      2.5951022    0.021657534              1      18.821945 
INFO: Particle insertion ins: inserted 18 particle templates (mass 5.746523e-01) at step 500001
 - a total of 918 particle templates (mass 2.930727e+01) inserted so far.
  501000      918      3.4660403    0.023706696              1      18.317756 
  502000      918      3.5596162    0.019518038              1      15.952976 
  503000      918       3.523017    0.018110081              1      15.295598 
  504000      918      3.2600539    0.021366098              1      15.978027 
  505000      918      3.0477646    0.012857052              1      17.127727 
  506000      918      2.9965875    0.012860226              1      18.086874 
  507000      918      2.7206159    0.013747317              1      19.490632 
  508000      918      2.7659932     0.00973572              1      16.991402 
  509000      918      2.6411754    0.010396562              1      16.524282 
  510000      918      2.6473801   0.0088397307              1      16.058887 
INFO: Particle insertion ins: inserted 18 particle templates (mass 5.746523e-01) at step 510001
 - a total of 936 particle templates (mass 2.988192e+01) inserted so far.
  511000      936      3.6234195    0.011171367              1      17.026728 
  512000      936      3.4424856    0.016010946              1       17.66657 
  513000      936      3.4016348    0.010799951              1      18.158077 
  514000      936      3.3968039      0.0102425              1      17.898052 
  515000      936      3.5285958   0.0075613959              1      16.422942 
  516000      936      3.5746222   0.0083992553              1      15.917085 
  517000      936       3.550669    0.010786453              1      16.429935 
  518000      936      3.7199202   0.0095195412              1      16.487823 
  519000      936      3.4331192    0.016857588              1       19.38016 
  520000      936      3.0990194     0.01984645              1      20.550399 
INFO: Particle insertion ins: inserted 18 particle templates (mass 5.746523e-01) at step 520001
 - a total of 954 particle templates (mass 3.045657e+01) inserted so far.
  521000      954      3.6510657    0.020280256              1      21.905236 
  522000      954      3.4671777    0.015774013              1      20.171994 
  523000      954      3.5715179    0.013191484              1      16.649426 
  524000      954      3.4512628   0.0098526489              1      16.023845 
  525000      954      3.1807507    0.010986204              1      17.747876 
  526000      954      3.2444758   0.0087472426              1      17.539545 
  527000      954      3.3422131   0.0078252764              1      17.481685 
  528000      954      3.2463704   0.0098767847              1      17.716088 
  529000      954      3.1652659    0.010810578              1      18.145128 
  530000      954      3.0290473    0.011515679              1        19.0741 
INFO: Particle insertion ins: inserted 18 particle templates (mass 5.746523e-01) at step 530001
 - a total of 972 particle templates (mass 3.103122e+01) inserted so far.
  531000      972      3.9097477    0.012844463              1      20.292156 
  532000      972       3.650835    0.013867736              1      20.132206 
  533000      972      3.5873924    0.011321305              1      19.590399 
  534000      972      3.5023367    0.015482238              1      18.446322 
  535000      972      3.4783041    0.010169378              1      17.090268 
  536000      972       3.068815     0.01242742              1      19.381126 
  537000      972      3.1492967    0.009298458              1      18.759932 
  538000      972      3.0061568    0.015021275              1      19.600295 
  539000      972       2.590485    0.019004936              1      21.048129 
  540000      972      2.4001572    0.013598202              1      21.613628 
INFO: Particle insertion ins: inserted 18 particle templates (mass 5.746523e-01) at step 540001
 - a total of 990 particle templates (mass 3.160588e+01) inserted so far.
  541000      990      3.4124575    0.013242343              1      20.298625 
  542000      990      3.3799849    0.012551562              1      18.153069 
  543000      990      3.3181862    0.013862352              1      17.476661 
  544000      990      3.3735814    0.012789301              1       17.78676 
  545000      990      3.2753696    0.012544607              1      19.095535 
  546000      990      3.2411843    0.012571021              1      19.312443 
  547000      990      3.0441646    0.013951556              1      20.901997 
  548000      990      3.1186094     0.01498035              1      19.414685 
  549000      990      3.0522501    0.019858051              1      19.037329 
  550000      990      2.8452636    0.016962692              1      19.182134 
INFO: Particle insertion ins: inserted 18 particle templates (mass 5.746523e-01) at step 550001
 - a total of 1008 particle templates (mass 3.218053e+01) inserted so far.
  551000     1008       3.964361     0.01745371              1      19.699838 
  552000     1008      3.7202656     0.01740948              1      20.981558 
  553000     1008      3.6276659    0.015884782              1      20.560926 
  554000     1008      3.5227065    0.014022859              1      20.261374 
  555000     1008       3.290678    0.015262984              1      20.591078 
  556000     1008      2.9981002    0.021449053              1      21.153384 
  557000     1008      2.9768094    0.020464668              1       20.10425 
  558000     1008      2.8877975    0.015456717              1      20.134076 
  559000     1008      2.6539486    0.019527093              1      20.228261 
  560000     1008      2.1957822    0.023108355              1      22.096707 
INFO: Particle insertion ins: inserted 18 particle templates (mass 5.746523e-01) at step 560001
 - a total of 1026 particle templates (mass 3.275518e+01) inserted so far.
  561000     1026       3.419648    0.020657723              1      20.826581 
  562000     1026      3.3930308    0.019898857              1       19.49246 
  563000     1026      3.5401464    0.017459493              1      17.913327 
  564000     1026      3.6444451    0.013382007              1      18.158187 
  565000     1026      3.4909055    0.018069333              1      19.783311 
  566000     1026      3.2863985    0.019091577              1      21.342287 
  567000     1026      3.0787809    0.018224457              1      22.986948 
  568000     1026      2.9600684    0.017231259              1       21.75586 
  569000     1026      2.9526225    0.013917616              1      20.389981 
  570000     1026      2.4817407    0.019531691              1      22.015826 
INFO: Particle insertion ins: inserted 18 particle templates (mass 5.746523e-01) at step 570001
 - a total of 1044 particle templates (mass 3.332983e+01) inserted so far.
  571000     1044      3.5014394     0.01720819              1      21.089443 
  572000     1044      3.3674323    0.015333483              1      21.198835 
  573000     1044      3.4342044    0.010785954              1      20.271307 
  574000     1044      3.4387299    0.010445688              1      20.070428 
  575000     1044      3.2254382    0.011743594              1      20.609814 
  576000     1044      3.3243279   0.0089330059              1       20.47871 
  577000     1044      3.1260384    0.018994863              1      21.480511 
  578000     1044       3.080675    0.019917794              1       21.40417 
  579000     1044      2.9737174    0.021353321              1      21.916403 
  580000     1044       2.571873    0.025614957              1      23.126624 
INFO: Particle insertion ins: inserted 18 particle templates (mass 5.746523e-01) at step 580001
 - a total of 1062 particle templates (mass 3.390448e+01) inserted so far.
  581000     1062      3.5006349    0.022569716              1      22.764085 
  582000     1062      3.3707052    0.022865897              1      22.088778 
  583000     1062      3.4387998    0.019584625              1      20.467692 
  584000     1062      3.3974951    0.021267351              1      19.609686 
  585000     1062      3.3069319    0.022696154              1       20.53896 
  586000     1062      3.1361782    0.023523022              1       22.19259 
  587000     1062      3.1875643    0.016902945              1      22.738898 
  588000     1062      3.1269356    0.016813756              1       23.00441 
  589000     1062      3.1540518     0.01359553              1      21.349749 
  590000     1062      3.1577878     0.01851763              1      20.139825 
INFO: Particle insertion ins: inserted 18 particle templates (mass 5.746523e-01) at step 590001
 - a total of 1080 particle templates (mass 3.447914e+01) inserted so far.
  591000     1080      3.9838578    0.023792098              1      22.073599 
  592000     1080      3.6170062    0.023395192              1      24.208492 
  593000     1080      3.5726567    0.021727976              1      23.887722 
  594000     1080      3.5241656      0.0230207              1      22.592767 
  595000     1080      3.2187439    0.018526294              1      22.338402 
  596000     1080      3.2054572    0.017867093              1      21.885524 
  597000     1080      2.9478711    0.016040489              1      23.127818 
  598000     1080      2.7899728    0.012933132              1      23.238733 
  599000     1080      2.5150167    0.013716148              1      23.955114 
  600000     1080      2.4620741    0.012600983              1      22.920178 
INFO: Particle insertion ins: inserted 18 particle templates (mass 5.746523e-01) at step 600001
 - a total of 1098 particle templates (mass 3.505379e+01) inserted so far.
  601000     1098      3.3949034    0.013089334              1      23.022385 
  602000     1098      3.4339873    0.008549549              1      21.615803 
  603000     1098      3.4523967   0.0069967081              1      21.525169 
  604000     1098      3.1753216    0.010930424              1       23.74638 
  605000     1098      3.0694843    0.009789071              1      23.874706 
  606000     1098      2.7918249      0.0169304              1      24.869226 
  607000     1098      2.8510862    0.015060591              1      23.210824 
  608000     1098      2.6515316    0.017237165              1      22.513887 
  609000     1098      2.4486511    0.018471012              1      23.101805 
  610000     1098      2.4451839    0.016252334              1      22.431226 
INFO: Particle insertion ins: inserted 18 particle templates (mass 5.746523e-01) at step 610001
 - a total of 1116 particle templates (mass 3.562844e+01) inserted so far.
  611000     1116      3.4235172    0.018993747              1      23.028424 
  612000     1116      3.3883334    0.016792211              1      22.623047 
  613000     1116      3.4472802    0.011902924              1      22.491037 
  614000     1116      3.4205961    0.012142272              1      22.876691 
  615000     1116      3.3287108    0.012322852              1       23.08379 
  616000     1116      3.3039217    0.013933347              1      23.429547 
  617000     1116      3.0247972    0.018567487              1      24.646516 
  618000     1116        2.67936    0.016064992              1      26.538786 
  619000     1116      2.6447042    0.017568448              1      24.645613 
  620000     1116      2.5663677    0.017488685              1      22.884699 
INFO: Particle insertion ins: inserted 18 particle templates (mass 5.746523e-01) at step 620001
 - a total of 1134 particle templates (mass 3.620309e+01) inserted so far.
  621000     1134      3.4379467     0.02099352              1      22.670159 
  622000     1134      3.4580793    0.017269345              1      22.676535 
  623000     1134      3.4266382    0.016846773              1      23.378432 
  624000     1134       3.455214    0.018797447              1      23.554227 
  625000     1134      3.5425009    0.012685514              1      23.354967 
  626000     1134       3.089688    0.020462441              1      26.595271 
  627000     1134      3.0635826    0.016313239              1      25.688736 
  628000     1134      3.1281619    0.017861403              1      23.483375 
  629000     1134       3.035418     0.01651846              1      23.258889 
  630000     1134      2.8348519    0.021470076              1      24.143069 
INFO: Particle insertion ins: inserted 18 particle templates (mass 5.746523e-01) at step 630001
 - a total of 1152 particle templates (mass 3.677775e+01) inserted so far.
  631000     1152      3.5077909    0.020922662              1      25.626271 
  632000     1152      3.4868727    0.013735426              1      25.797186 
  633000     1152      3.5141524    0.013898764              1      24.185321 
  634000     1152      3.4544243    0.015859831              1      23.351689 
  635000     1152      3.2379688    0.021654819              1      24.015406 
  636000     1152      2.6065155    0.025169675              1      27.211873 
  637000     1152      2.3761302    0.017583018              1      27.977399 
  638000     1152      2.4051393    0.012275198              1      26.126562 
  639000     1152      2.3196497    0.014231707              1      23.541152 
  640000     1152      2.0731885    0.013779976              1      23.957577 
INFO: Particle insertion ins: inserted 18 particle templates (mass 5.746523e-01) at step 640001
 - a total of 1170 particle templates (mass 3.735240e+01) inserted so far.
  641000     1170      3.0707119     0.01114576              1      25.086957 
  642000     1170       3.167816   0.0078829718              1      25.066263 
  643000     1170      3.2400241     0.01144441              1      24.042061 
  644000     1170      3.3870834   0.0093453263              1      22.735744 
  645000     1170      3.4054889   0.0067376134              1      23.244991 
  646000     1170      3.3374309   0.0073638212              1      24.755165 
  647000     1170      3.2011222    0.011282709              1       26.21739 
  648000     1170      3.1749335    0.012103279              1      26.286986 
  649000     1170      3.1493075    0.011121716              1      25.765348 
  650000     1170      2.7930938    0.014308997              1      26.099405 
INFO: Particle insertion ins: inserted 18 particle templates (mass 5.746523e-01) at step 650001
 - a total of 1188 particle templates (mass 3.792705e+01) inserted so far.
  651000     1188      3.6482092      0.0204662              1       27.18613 
  652000     1188      3.4870093     0.01678869              1      27.451953 
  653000     1188      3.5528633     0.01367485              1      26.025658 
  654000     1188      3.4049605    0.012776225              1      26.032988 
  655000     1188       3.274747    0.012071105              1      25.793298 
  656000     1188      2.8468525    0.024427301              1      28.103205 
  657000     1188      2.5981325    0.021158894              1      28.920745 
  658000     1188      2.5022029    0.015228879              1      28.155418 
  659000     1188      2.5409056    0.012978982              1      26.221025 
  660000     1188      2.3188783    0.015843777              1      25.708072 
INFO: Particle insertion ins: inserted 18 particle templates (mass 5.746523e-01) at step 660001
 - a total of 1206 particle templates (mass 3.850170e+01) inserted so far.
  661000     1206      3.3619941    0.015264497              1      25.805963 
  662000     1206      3.3916011    0.011042685              1      25.648209 
  663000     1206      3.3971656    0.011889213              1      25.641098 
  664000     1206      3.2940223    0.011181573              1      26.352984 
  665000     1206      2.9867669    0.011690636              1      28.851431 
  666000     1206      2.8463424    0.011291931              1      29.352268 
  667000     1206      2.5270998    0.013104241              1      29.064751 
  668000     1206      2.3552291    0.012307342              1      28.159552 
  669000     1206      2.1763197   0.0098979269              1      27.604699 
  670000     1206      2.1879168    0.010705234              1      25.799037 
INFO: Particle insertion ins: inserted 18 particle templates (mass 5.746523e-01) at step 670001
 - a total of 1224 particle templates (mass 3.907635e+01) inserted so far.
  671000     1224      3.2605571    0.010054112              1      25.651707 
  672000     1224      3.2912715    0.010428204              1      25.405022 
  673000     1224      3.3925001   0.0089106633              1      26.122447 
  674000     1224      3.2970332    0.011308884              1      27.233426 
  675000     1224      3.2749483    0.010253474              1      27.406606 
  676000     1224       2.839387     0.01722029              1      29.113312 
  677000     1224       2.654332    0.015449174              1      29.164406 
  678000     1224       2.575371    0.013519643              1      28.450729 
  679000     1224      2.2715865    0.017803562              1      28.723489 
  680000     1224      1.8929994    0.017406127              1       29.05528 
INFO: Particle insertion ins: inserted 18 particle templates (mass 5.746523e-01) at step 680001
 - a total of 1242 particle templates (mass 3.965101e+01) inserted so far.
  681000     1242      3.0832767    0.012527294              1        27.9047 
  682000     1242      3.2085924   0.0088431927              1      26.160989 
  683000     1242      3.0653205    0.013475276              1      26.585606 
  684000     1242      3.0868465    0.010232781              1      26.786597 
  685000     1242      3.2574795   0.0092381034              1      26.770224 
  686000     1242      3.3844806   0.0072773762              1      26.980032 
  687000     1242      3.4231404   0.0084381478              1      26.748879 
  688000     1242      3.0778219    0.016235226              1      28.910382 
  689000     1242      2.8644923    0.011399969              1      30.658497 
  690000     1242      2.6946298    0.016802708              1      30.247546 
INFO: Particle insertion ins: inserted 18 particle templates (mass 5.746523e-01) at step 690001
 - a total of 1260 particle templates (mass 4.022566e+01) inserted so far.
  691000     1260      3.4893102    0.021214217              1      30.398154 
  692000     1260      3.4372864    0.016949724              1      28.146338 
  693000     1260      3.3094166     0.01571149              1      28.659711 
  694000     1260      3.0780241    0.018964025              1      28.950541 
  695000     1260      2.9703742    0.013805647              1      28.952159 
  696000     1260      2.7630397     0.01943856              1      28.716669 
  697000     1260       2.755361    0.018378799              1      27.777804 
  698000     1260      2.6080833    0.015959675              1      28.680577 
  699000     1260      2.4295175    0.014835667              1      30.186214 
  700000     1260      2.3464681    0.012257615              1      30.391301 
INFO: Particle insertion ins: inserted 18 particle templates (mass 5.746523e-01) at step 700001
 - a total of 1278 particle templates (mass 4.080031e+01) inserted so far.
  701000     1278      3.2236385      0.0130425              1      30.735382 
  702000     1278      3.2916954    0.014004861              1      28.542583 
  703000     1278      3.1695585    0.011735218              1      28.525294 
  704000     1278      3.2395218    0.010038953              1       27.78242 
  705000     1278      3.2011867    0.013184287              1       28.46797 
  706000     1278      3.0730006     0.01699586              1      29.848542 
  707000     1278      2.8623562    0.017724884              1      31.032923 
  708000     1278      2.4983037    0.018784613              1      32.158439 
  709000     1278      2.4937952    0.016680508              1      31.241098 
  710000     1278      2.3283611    0.019705794              1      30.798347 
INFO: Particle insertion ins: inserted 18 particle templates (mass 5.746523e-01) at step 710001
 - a total of 1296 particle templates (mass 4.137496e+01) inserted so far.
  711000     1296      3.3719958    0.016836805              1      29.216555 
  712000     1296      3.3536438    0.014867463              1      28.447744 
  713000     1296      3.1294529    0.020691732              1      30.158275 
  714000     1296      3.1280844    0.013546388              1      30.408817 
  715000     1296      2.9102767     0.01931804              1      31.564565 
  716000     1296       2.844916    0.012742155              1      30.852619 
  717000     1296      2.7574219    0.010616997              1       30.63852 
  718000     1296      2.4125203    0.012864952              1       31.96794 
  719000     1296      2.3895762   0.0090499892              1      30.357138 
  720000     1296      2.3159373   0.0098658997              1      30.328842 
INFO: Particle insertion ins: inserted 18 particle templates (mass 5.746523e-01) at step 720001
 - a total of 1314 particle templates (mass 4.194962e+01) inserted so far.
  721000     1314      3.2609306    0.011775857              1      30.859813 
  722000     1314      3.3192226   0.0089247839              1      30.250118 
  723000     1314      3.2858249    0.011277045              1      30.409677 
  724000     1314      3.2246507    0.013344498              1      29.609201 
  725000     1314       3.184803   0.0081866082              1      30.465156 
  726000     1314      2.8967283    0.014605997              1      32.058625 
  727000     1314      2.4716528    0.017406307              1       34.22518 
  728000     1314      2.3276186    0.021034662              1      33.739933 
  729000     1314      1.9721154    0.018677328              1      33.916071 
  730000     1314      1.8422266    0.017034547              1      31.760166 
INFO: Particle insertion ins: inserted 18 particle templates (mass 5.746523e-01) at step 730001
 - a total of 1332 particle templates (mass 4.252427e+01) inserted so far.
  731000     1332      3.0972788    0.015103387              1      29.285204 
  732000     1332      3.2202691    0.011914309              1      28.097658 
  733000     1332      3.3812498   0.0087950375              1      27.611455 
  734000     1332      3.3811032     0.01063388              1      29.415236 
  735000     1332      3.3547066     0.01016357              1      31.431147 
  736000     1332      3.1953558    0.016947996              1       33.67784 
  737000     1332      3.0217413    0.016780863              1      33.935621 
[...]
  809000     1458      2.2507411    0.016592978              1      36.696788 
  810000     1458      2.0579681    0.018260698              1      36.998321 
INFO: Particle insertion ins: inserted 18 particle templates (mass 5.746523e-01) at step 810001
 - a total of 1476 particle templates (mass 4.712149e+01) inserted so far.
  811000     1476      3.2648229    0.013444661              1      36.262281 
  812000     1476      3.2873917    0.011722298              1      35.886246 
  813000     1476      3.2365917    0.011656467              1       35.94083 
  814000     1476      2.9518203     0.01394821              1      37.683294 
  815000     1476      2.6683297    0.017883469              1      38.791079 
  816000     1476      2.3979275    0.016085689              1      40.257017 
  817000     1476      2.2818802    0.013953451              1      39.410514 
  818000     1476       2.235603    0.012240434              1      38.199538 
  819000     1476      2.2763116    0.012417673              1      36.277403 
  820000     1476      2.0260134    0.013472951              1      36.480037 
INFO: Particle insertion ins: inserted 18 particle templates (mass 5.746523e-01) at step 820001
 - a total of 1494 particle templates (mass 4.769614e+01) inserted so far.
  821000     1494      3.2753675    0.011581108              1      35.830083 
  822000     1494      3.2974248    0.010531376              1       36.76843 
  823000     1494      3.2373865    0.012266786              1      38.783245 
  824000     1494      2.8303729    0.018089091              1       40.48301 
  825000     1494      2.6329676    0.015588043              1      41.395099 
  826000     1494      2.6104018    0.014147767              1      39.593645 
  827000     1494      2.2807694     0.01707121              1      39.102622 
  828000     1494      2.2976458    0.012300863              1      36.859838 
  829000     1494      2.3381404    0.011299826              1      35.233683 
  830000     1494       2.107892    0.016316745              1      37.350403 
INFO: Particle insertion ins: inserted 18 particle templates (mass 5.746523e-01) at step 830001
 - a total of 1512 particle templates (mass 4.827079e+01) inserted so far.
  831000     1512      3.3106233    0.010340328              1      38.145796 
  832000     1512      3.2785033    0.014789966              1      39.369122 
  833000     1512      2.9482097    0.013856703              1      40.392518 
  834000     1512      2.6578879    0.015070424              1      40.677075 
  835000     1512      2.4544229      0.0125844              1      40.624338 
  836000     1512      2.4916905    0.010646689              1      38.540191 
  837000     1512      2.2334806    0.010853249              1      39.678855 
  838000     1512      2.0499059       0.011939              1      40.023988 
  839000     1512      1.9256534    0.012080348              1      40.121084 
  840000     1512      1.9896388    0.010584114              1      38.952676 
INFO: Particle insertion ins: inserted 18 particle templates (mass 5.746523e-01) at step 840001
 - a total of 1530 particle templates (mass 4.884544e+01) inserted so far.
  841000     1530      3.0568935    0.014065177              1      39.097775 
  842000     1530      2.9858502    0.013259217              1      38.582962 
  843000     1530      2.9211151    0.011907727              1      38.999624 
  844000     1530      2.7813713    0.012277451              1      40.407314 
  845000     1530      2.6578658    0.011364021              1      41.268568 
  846000     1530      2.5006458    0.012503135              1      41.955711 
  847000     1530      2.3950437    0.013828138              1      40.647163 
  848000     1530      2.2932447    0.015381025              1      39.225124 
  849000     1530      2.1200814    0.019409359              1      39.212191 
  850000     1530      2.0209779      0.0188098              1      39.537131 
INFO: Particle insertion ins: inserted 18 particle templates (mass 5.746523e-01) at step 850001
 - a total of 1548 particle templates (mass 4.942010e+01) inserted so far.
  851000     1548      3.2129819    0.012084274              1      40.294118 
  852000     1548      3.1375552    0.018047898              1      40.893592 
  853000     1548      2.9341817    0.016829495              1      41.627679 
  854000     1548      2.8781449    0.015856937              1      40.709359 
  855000     1548      2.7296931    0.016150165              1      41.510018 
  856000     1548       2.840292     0.01190139              1      40.594883 
  857000     1548      2.6856086    0.013553011              1       41.16153 
  858000     1548        2.58048    0.014122048              1      41.158926 
  859000     1548      2.3704727    0.013906641              1      42.121421 
  860000     1548      2.1644686    0.016052476              1       42.29549 
INFO: Particle insertion ins: inserted 18 particle templates (mass 5.746523e-01) at step 860001
 - a total of 1566 particle templates (mass 4.999475e+01) inserted so far.
  861000     1566      3.2607842    0.014946736              1      41.589159 
  862000     1566      3.2724377    0.014852173              1      40.469383 
  863000     1566      2.9750536    0.017274976              1      41.355248 
  864000     1566      2.7557195    0.017430705              1      41.821489 
  865000     1566      2.1993468    0.021419436              1      44.915165 
  866000     1566      2.0140931    0.015594981              1      44.159603 
  867000     1566      1.9822645    0.016384364              1       42.75073 
  868000     1566      1.9322704    0.015309389              1      40.925727 
  869000     1566      1.8668191    0.014843478              1      39.630337 
  870000     1566      1.9080909     0.01180778              1      39.630375 
INFO: Particle insertion ins: inserted 18 particle templates (mass 5.746523e-01) at step 870001
 - a total of 1584 particle templates (mass 5.056940e+01) inserted so far.
  871000     1584       3.060821   0.0096898806              1      40.432574 
  872000     1584      3.0113313    0.012473926              1      41.478329 
  873000     1584      2.8313531    0.011407945              1       43.33058 
  874000     1584      2.7915675   0.0086829253              1      43.050557 
  875000     1584      2.6644973    0.012597203              1      42.823548 
  876000     1584      2.6759516    0.011141718              1      41.133573 
  877000     1584      2.5350377    0.014657074              1      41.427708 
  878000     1584      2.2646437     0.01668703              1      43.522923 
  879000     1584      2.1006004    0.014640904              1      43.446337 
  880000     1584      2.0353147    0.015185044              1      43.028262 
INFO: Particle insertion ins: inserted 18 particle templates (mass 5.746523e-01) at step 880001
 - a total of 1602 particle templates (mass 5.114405e+01) inserted so far.
  881000     1602      3.1985632    0.014757848              1      41.577539 
  882000     1602      3.2483166    0.013125184              1      40.389538 
  883000     1602       3.034561    0.016168679              1      41.976977 
  884000     1602      2.5572424    0.019021236              1      45.173773 
  885000     1602       2.581367    0.012999809              1      45.311348 
  886000     1602      2.7080294   0.0089878889              1      43.493111 
  887000     1602      2.5784718    0.012678074              1      41.872456 
  888000     1602      2.5868122    0.010040346              1      41.172696 
  889000     1602      2.2400697    0.015913999              1      43.105709 
  890000     1602      1.9858832    0.014618485              1      45.782571 
INFO: Particle insertion ins: inserted 18 particle templates (mass 5.746523e-01) at step 890001
 - a total of 1620 particle templates (mass 5.171870e+01) inserted so far.
  891000     1620      3.2030178    0.010791763              1      44.749522 
  892000     1620      3.3315319   0.0069106644              1      42.674708 
  893000     1620      3.1225573    0.013063695              1      42.276357 
  894000     1620      2.7305624    0.016019991              1      43.664928 
  895000     1620      2.7374175    0.013735507              1       43.91139 
  896000     1620      2.4892053    0.017937468              1      45.525822 
  897000     1620      2.3285551    0.020663426              1      44.928931 
  898000     1620      2.0333512    0.017623534              1      46.114713 
  899000     1620      1.9247023    0.015658152              1      45.629568 
  900000     1620      1.8948864   0.0099931878              1      44.427549 
INFO: Particle insertion ins: inserted 18 particle templates (mass 5.746523e-01) at step 900001
 - a total of 1638 particle templates (mass 5.229336e+01) inserted so far.
  901000     1638      3.0534718    0.012656245              1      42.619465 
  902000     1638      3.0424991    0.010866155              1      41.719207 
  903000     1638      2.8994429    0.013086976              1       42.46449 
  904000     1638      2.8557732    0.015195269              1      43.913702 
  905000     1638      2.6735611    0.014004317              1      45.446556 
  906000     1638      2.4657054    0.011244401              1      47.423458 
  907000     1638      2.2911766    0.015894526              1       47.40017 
  908000     1638      2.0514676    0.017293788              1       47.04159 
  909000     1638      1.8164089    0.016771936              1      46.208267 
  910000     1638      1.8668057    0.015685794              1      44.173968 
INFO: Particle insertion ins: inserted 18 particle templates (mass 5.746523e-01) at step 910001
 - a total of 1656 particle templates (mass 5.286801e+01) inserted so far.
  911000     1656      3.0894021    0.011041548              1      42.767138 
  912000     1656       3.192822   0.0099527506              1       41.60101 
  913000     1656      3.2037395    0.010891127              1      42.143891 
  914000     1656      3.0932661    0.013431196              1      44.827555 
  915000     1656      2.9312159    0.013449919              1      46.933679 
  916000     1656      2.5912369     0.01329978              1      49.807507 
  917000     1656      2.3178811    0.017065856              1      49.461225 
  918000     1656      2.1848343    0.017282262              1       47.63969 
  919000     1656      1.8394982    0.017103715              1      46.960475 
  920000     1656      1.8265842    0.010887138              1      45.136615 
INFO: Particle insertion ins: inserted 18 particle templates (mass 5.746523e-01) at step 920001
 - a total of 1674 particle templates (mass 5.344266e+01) inserted so far.
  921000     1674      3.0777914   0.0095847808              1       43.69975 
  922000     1674      2.9116144    0.013977688              1      44.612776 
  923000     1674      2.9752539    0.010846855              1      44.382249 
  924000     1674      2.8828074    0.012282237              1      45.757341 
  925000     1674      2.6840313    0.012787299              1      47.700729 
  926000     1674      2.5919388   0.0090189676              1      48.252501 
  927000     1674      2.3663148   0.0072748456              1      48.107909 
  928000     1674      2.3740495   0.0058141005              1       46.42528 
  929000     1674      1.9968686    0.017986035              1      47.114851 
  930000     1674      1.8853437    0.011714147              1      46.771103 
INFO: Particle insertion ins: inserted 18 particle templates (mass 5.746523e-01) at step 930001
 - a total of 1692 particle templates (mass 5.401731e+01) inserted so far.
  931000     1692      3.0164339    0.010152416              1      47.070725 
  932000     1692      3.0513896   0.0097673439              1      46.360704 
  933000     1692      2.8738827   0.0091412507              1      46.640392 
  934000     1692      2.8768243   0.0080994861              1      45.952786 
  935000     1692      2.8050278   0.0077512973              1      47.000491 
  936000     1692      2.6551007   0.0096701294              1      48.033643 
  937000     1692      2.3445634    0.013764276              1      48.828016 
  938000     1692      2.0428277    0.016730537              1      50.107851 
  939000     1692      1.9442449    0.013541466              1      49.823699 
  940000     1692      1.8833627   0.0094196957              1      48.515766 
INFO: Particle insertion ins: inserted 18 particle templates (mass 5.746523e-01) at step 940001
 - a total of 1710 particle templates (mass 5.459197e+01) inserted so far.
  941000     1710      3.0879854   0.0076363283              1      46.997128 
  942000     1710      2.9567549   0.0098078184              1      46.571968 
  943000     1710      3.0582659   0.0070951831              1      45.262508 
  944000     1710        2.69102    0.011738868              1      47.978432 
  945000     1710      2.4236436    0.012223274              1      49.679037 
  946000     1710      2.2405421    0.011284342              1      50.736551 
  947000     1710      1.9130644      0.0152051              1      51.359929 
  948000     1710      1.7444528    0.012734731              1      49.507809 
  949000     1710      1.6896549    0.014872954              1      47.588306 
  950000     1710      1.7776486    0.011174045              1      45.273866 
INFO: Particle insertion ins: inserted 18 particle templates (mass 5.746523e-01) at step 950001
 - a total of 1728 particle templates (mass 5.516662e+01) inserted so far.
  951000     1728      3.0518918   0.0096681514              1      44.281808 
  952000     1728      3.0805801    0.011970424              1      45.349648 
  953000     1728      3.1209284    0.011149147              1      47.026415 
  954000     1728      3.1872588   0.0066956876              1      48.046122 
  955000     1728      2.9460203    0.012432906              1      49.615696 
  956000     1728      2.6940388    0.015650574              1      50.405065 
  957000     1728      2.4340037    0.014373449              1      51.326821 
  958000     1728      2.0861477    0.018051921              1      51.861428 
  959000     1728      1.8418392    0.012114734              1      51.390976 
  960000     1728      1.8025332   0.0093076248              1      49.648928 
INFO: Particle insertion ins: inserted 18 particle templates (mass 5.746523e-01) at step 960001
 - a total of 1746 particle templates (mass 5.574127e+01) inserted so far.
  961000     1746      3.0327485    0.007124755              1      47.199457 
  962000     1746      2.9502433   0.0098659615              1      46.374379 
  963000     1746      2.9226349    0.010034013              1      46.608552 
  964000     1746      2.9396655   0.0099905969              1      47.352505 
  965000     1746      2.9239897   0.0096439582              1      49.305195 
  966000     1746      2.5628003    0.017156016              1      51.661809 
  967000     1746      2.2372566    0.019004121              1      53.978885 
  968000     1746      1.9535989    0.010912862              1      54.177941 
  969000     1746      1.7901691    0.014722131              1      52.252238 
  970000     1746      1.8666453    0.011489532              1      49.164904 
INFO: Particle insertion ins: inserted 18 particle templates (mass 5.746523e-01) at step 970001
 - a total of 1764 particle templates (mass 5.631592e+01) inserted so far.
  971000     1764      2.9687687    0.011011276              1        48.3519 
  972000     1764      2.9649123   0.0091153622              1      47.049564 
  973000     1764      2.9151418    0.010558239              1      48.105218 
  974000     1764      2.9076355    0.011476073              1       50.04633 
  975000     1764      2.7331692    0.012716245              1      51.205691 
  976000     1764      2.5547157    0.015842195              1      52.891474 
  977000     1764       2.257421    0.013115051              1       53.37943 
  978000     1764      2.1705489    0.010771232              1      51.912029 
  979000     1764      1.9617915    0.018999358              1      50.799047 
  980000     1764      1.9405531    0.013236542              1      50.249386 
INFO: Particle insertion ins: inserted 18 particle templates (mass 5.746523e-01) at step 980001
 - a total of 1782 particle templates (mass 5.689058e+01) inserted so far.
  981000     1782      3.0872324    0.014406178              1      49.653638 
  982000     1782      3.0230742    0.015161033              1      50.369837 
  983000     1782      2.8721315    0.018222783              1      51.326738 
  984000     1782       2.723051    0.016914817              1      52.654154 
  985000     1782      2.4565635    0.022667269              1      53.079509 
  986000     1782      2.4854078    0.022593103              1      51.558947 
  987000     1782       2.401435    0.016559608              1      50.536232 
  988000     1782      2.1131975    0.019456711              1      50.874137 
  989000     1782      1.9821326    0.019723232              1      51.139229 
  990000     1782      1.9742242    0.015349787              1      51.885986 
INFO: Particle insertion ins: inserted 18 particle templates (mass 5.746523e-01) at step 990001
 - a total of 1800 particle templates (mass 5.746523e+01) inserted so far.
  991000     1800      2.9506479    0.018377268              1      52.858454 
  992000     1800      2.9336316     0.01534767              1      51.089752 
  993000     1800      2.9442064    0.013068942              1       50.54808 
  994000     1800      2.8937034    0.014407532              1      50.702649 
  995000     1800        2.66997    0.015749498              1      52.196952 
  996000     1800      2.3263818    0.018682027              1      53.181114 
  997000     1800      2.0978219    0.016773384              1      54.929968 
  998000     1800      1.9660002    0.016953024              1      54.496206 
  999000     1800      1.8858244    0.014603454              1      53.045207 
 1000000     1800      1.9714217    0.013052905              1      50.677937 
Loop time of 276.924 on 80 procs for 1000000 steps with 1800 atoms, finish time Thu Sep  6 09:57:09 2018


Pair  time (%) = 7.99933 (2.88864)
Neigh time (%) = 4.94551 (1.78587)
Comm  time (%) = 42.6505 (15.4015)
Outpt time (%) = 1.1005 (0.397399)
Other time (%) = 220.229 (79.5266)

Nlocal:    22.5 ave 283 max 0 min
Histogram: 72 0 0 0 0 1 3 0 0 4
Nghost:    18.0875 ave 187 max 0 min
Histogram: 72 0 0 0 0 0 0 0 4 4
Neighs:    77.5125 ave 917 max 0 min
Histogram: 72 0 0 0 0 0 0 4 0 4

Total # of neighbors = 6201
Ave neighs/atom = 3.445
Neighbor list builds = 274166
Dangerous builds = 0
# 2. Run second period: growth the particle in all direction
#variable          nt   equal    1
#label  loop2
#  variable        da    equal   ${a0}+${nt}*${grwRt}
#  variable        db    equal   ${b0}-${nt}*${grwRt}
#  variable        dc    equal   ${c0}+${nt}*${grwRt}
#  set             type  1  shape  ${da}  ${db}  ${dc}
#  run		  ${writeOutEvery}
#  variable        nt    equal   ${nt}+1
#  if "${nt} > ${grwNs}" then "jump cycle.in loop3"
#jump cycle.in loop2
# 3. Run third period: shrink in all direction
#label loop3
#  variable        da    equal   0.02-(${nt}-${grwNs})*${grwRt}
#  variable        db    equal   0.03+(${nt}-${grwNs})*${grwRt}
#  variable        dc    equal   0.02-(${nt}-${grwNs})*${grwRt}
#  set             type  1  shape  ${da}  ${db}  ${dc}
#  run		  ${writeOutEvery}
#  variable        nt    equal   ${nt}+1
#  if "${nt} > 40" then "jump cycle.in loop4"
#jump cycle.in loop3
# 3. End of run
#label loop4
write_restart   pack.restart
