ITEM: TIMESTEP
3906000
ITEM: NUMBER OF ATOMS
1190
ITEM: BOX BOUNDS ff ff ff
0.0000000000000000e+00 5.0000000000000000e+00
0.0000000000000000e+00 5.0000000000000000e+00
0.0000000000000000e+00 3.0156250000000000e+01
ITEM: ATOMS id type x y z radius fx fy fz
     20     1    0.394758685227    0.196109201323    0.191835740069    0.200000000000  -2.101004390080e-03   1.944920057555e-02   1.373791069426e-01
    672     1    0.794056438505    0.196758284068    0.196652092255    0.200000000000   5.863348401439e-03   3.376654429925e-03   2.383028195175e-02
    388     1    1.193553012400    0.197072616222    0.192271466369    0.200000000000  -9.895864316860e-03   1.702826056607e-02   1.231863061337e-01
    269     1    1.592418769251    0.197566943069    0.194356517194    0.200000000000   1.191783941688e-02   9.099894567507e-03   6.619937707183e-02
     97     1    1.991727622007    0.197922101939    0.193371149242    0.200000000000  -1.306825433971e-02   1.234048740704e-02   9.098197731248e-02
    650     1    2.390410661844    0.198101674644    0.192781376778    0.200000000000   1.257073055225e-02   1.449204510949e-02   1.076090505533e-01
    829     1    2.789632610782    0.198550568439    0.195111511791    0.200000000000  -1.033392789108e-02   6.699659188305e-03   4.993510936083e-02
    132     1    3.188269261248    0.197446618255    0.191949872883    0.200000000000   7.326468131953e-03   1.821218372018e-02   1.332436298673e-01
    934     1    3.587294052853    0.196787221385    0.197651173694    0.200000000000  -3.294288823671e-03   1.727754695292e-03   1.215653253706e-02
     73     1    3.986500641082    0.195143359636    0.191905754483    0.200000000000  -1.061405678493e-03   1.958917052396e-02   1.349259247347e-01
     62     1    4.391775030854    0.197405142498    0.196015035174    0.200000000000   7.656723036742e-03   4.614006622431e-03   3.321170487601e-02
    668     1    4.801800736727    0.198199265242    0.193139940425    0.200000000000  -1.309471032552e-02   1.309470970471e-02   9.736585299015e-02
    646     1    0.195523365406    0.541550822646    0.191902057867    0.200000000000   1.945388103756e-02   2.665862991089e-03   1.353067593357e-01
    848     1    0.594475734137    0.541947359100    0.192759890810    0.200000000000  -1.908061386557e-02   1.975194132108e-03   1.079741381949e-01
    364     1    0.993457156585    0.542543713770    0.190714964362    0.200000000000   1.443914250630e-02   2.821166890110e-03   1.767844439380e-01
    634     1    1.392977138103    0.543408270944    0.194978241080    0.200000000000  -1.281938363185e-02   6.852317754553e-04   5.280713076979e-02
    420     1    1.791791197831    0.543986124518    0.190166694969    0.200000000000   3.701446063698e-03   2.103324555092e-03   1.980090411139e-01
    117     1    2.190665254842    0.544666999075    0.196524924131    0.200000000000   6.422015542138e-03   2.002149940415e-04   2.408714934981e-02
    837     1    2.589890326848    0.544782248300    0.190295248805    0.200000000000  -8.365468029546e-03   1.488030932944e-03   1.932786742257e-01
    214     1    2.988702649776    0.555545321237    0.194105675769    0.200000000000   1.566520650201e-02  -2.334797556842e-03   7.217472592720e-02
    453     1    3.388477268137    0.543100295190    0.191120490532    0.200000000000  -1.739510608788e-02   2.256273272216e-03   1.619856186968e-01
    211     1    3.787739181957    0.541225494063    0.192031856455    0.200000000000   1.941982825765e-02   2.716649603927e-03   1.298764643939e-01
    954     1    4.186718847356    0.539430115614    0.192640892864    0.200000000000  -1.917168368321e-02   3.096542141867e-03   1.120856783530e-01
    768     1    4.801638685300    0.619631546317    0.197677417596    0.200000000000  -1.551019390820e-03  -3.133377496916e-03   1.138921635288e-02
    354     1    0.379429052015    0.895546638486    0.191773976804    0.200000000000   5.749161044972e-03  -1.857469070528e-02   1.388292248333e-01
    901     1    0.792814517730    0.887623821388    0.196131779983    0.200000000000   7.888891670131e-03  -3.348165919300e-03   3.152609235076e-02
     25     1    1.192554111581    0.888764101027    0.191609887876    0.200000000000  -1.103329491408e-02  -1.568053754336e-02   1.443327048506e-01
     23     1    1.591838749800    0.890018319988    0.193940546257    0.200000000000   1.381268726318e-02  -8.676002498864e-03   7.593021380319e-02
     21     1    1.995329274769    0.893490724138    0.193508818583    0.200000000000  -1.363945361628e-02  -1.102547274925e-02   8.681035031657e-02
    421     1    2.394640684803    0.898767544691    0.192759839239    0.200000000000   1.088669562033e-02  -1.574698533291e-02   1.076767602086e-01
     63     1    2.794153880264    0.904611019679    0.196572615697    0.200000000000  -5.544048140476e-03  -4.195324853043e-03   2.462790851038e-02
    416     1    3.192996654551    0.914452664842    0.193720536530    0.200000000000   3.049258694926e-03  -1.658208225725e-02   8.080700825406e-02
    397     1    3.590674187257    0.887218891207    0.197460383512    0.200000000000  -3.786571298629e-03  -1.404792717408e-03   1.335349741382e-02
    526     1    4.460769780206    0.827338507732    0.191374736297    0.200000000000  -4.310816941794e-03   1.806499694222e-02   1.526726329357e-01
    177     1    0.195205051343    1.249275163444    0.198665537640    0.200000000000   5.126819522541e-04  -6.599145342283e-04   3.448423866132e-03
    864     1    0.592838015627    1.232402084958    0.196737322929    0.200000000000  -3.790017853824e-03  -4.991004283081e-03   2.188326819859e-02
    181     1    0.991595508104    1.233504762813    0.195144431252    0.200000000000   4.382176227433e-03  -1.123926765532e-02   4.868831543814e-02
    393     1    1.390888471319    1.234716328647    0.199191033438    0.200000000000  -4.264909088621e-04  -4.270820974716e-04   1.786708102934e-03
    413     1    1.790462025075    1.236809284165    0.195013707229    0.200000000000   1.237639894460e-03  -1.253176078177e-02   5.154985111074e-02
    402     1    2.190570690508    1.241405135471    0.203805928770    0.200000000000   1.147661300824e-04  -1.064368852060e-04   3.950789031659e-04
    694     1    2.589801873877    1.247580019604    0.196732192584    0.200000000000  -8.737694326890e-04  -4.814079119788e-03   1.985870162932e-02
    435     1    4.062561599830    0.940906817573    0.200853717526    0.200000000000   0.000000000000e+00   0.000000000000e+00   0.000000000000e+00
    110     1    4.456985729074    1.226500387379    0.193578396354    0.200000000000  -1.229245992366e-03  -1.739413766083e-02   8.551235682910e-02
    698     1    4.804592478643    1.027835587882    0.192048615764    0.200000000000  -1.879944624156e-02  -5.890883191126e-03   1.302954942421e-01
    465     1    2.988656162832    1.256718665629    0.199931509939    0.200000000000   5.167893693457e-05   6.324405142210e-05   2.327774397594e-04
    156     1    3.383873569836    1.406587448339    0.197414120842    0.200000000000  -1.026103408701e-03   5.805516782526e-04   1.109564872604e-02
    234     1    3.751904966782    1.250888914799    0.206456081320    0.200000000000   2.128862520587e-04   2.148109712889e-04   7.117003003856e-04
      6     1    4.110519947832    1.424778128669    0.195232751144    0.200000000000   5.262229117680e-03   1.041703845594e-02   4.664890869350e-02
    242     1    4.802468208209    1.426343339322    0.195560015874    0.200000000000  -5.737121562144e-03   9.036719662725e-03   4.150969327378e-02
     24     1    0.313881144489    1.630001889333    0.196748493407    0.200000000000   2.907442737455e-03   7.316342986977e-04   1.827631943527e-02
    463     1    0.790009612239    1.577810006652    0.200581610812    0.200000000000   1.571964586695e-04   1.422590478199e-04   5.927157746424e-04
    514     1    1.189297932321    1.579350696520    0.194780700709    0.200000000000  -3.660690303272e-03   1.287423163169e-02   5.617154168726e-02
     70     1    1.588085637299    1.581097998116    0.197361822551    0.200000000000   2.966298501682e-03   3.360710075222e-03   1.494799509777e-02
    295     1    1.987075823206    1.584044646422    0.195118154349    0.200000000000  -6.247755672112e-03   1.041203319910e-02   4.913562968005e-02
    507     1    2.385480656795    1.590042745054    0.194583998374    0.200000000000   8.251092928273e-03   1.146761476376e-02   6.065539233646e-02
    778     1    2.704499201503    1.829708741090    0.192395680662    0.200000000000   1.320331659958e-02  -1.451075600688e-02   1.192037102659e-01
    344     1    3.060795984313    1.648808332006    0.190422353250    0.200000000000  -9.602481371307e-03  -5.644971214433e-03   1.874181868077e-01
     15     1    3.405845311763    1.848845766139    0.195705185031    0.200000000000  -6.707055820486e-03  -7.501200371542e-03   3.845284568285e-02
    508     1    3.751205138832    1.649173967341    0.196682761941    0.200000000000   2.557293667730e-03  -5.850265827825e-04   1.815919952841e-02
    711     1    4.097327738390    1.847895243585    0.195265944033    0.200000000000   7.550346431838e-03  -8.897107570277e-03   4.653552983399e-02
    220     1    4.456030337074    1.625368740957    0.190406696633    0.200000000000  -2.017678178620e-03   1.059654282285e-02   1.887266402759e-01
    301     1    4.802230739438    1.825141512844    0.192587833996    0.200000000000  -1.537720742592e-02  -1.187415212149e-02   1.132270264993e-01
     77     1    0.198173557817    2.011983209938    0.195610305098    0.200000000000   5.472389393342e-03  -8.897195887139e-03   4.028745871017e-02
    678     1    0.587319104069    1.921029333959    0.193184007386    0.200000000000  -1.433208884450e-02   1.137360317933e-02   9.530420001715e-02
    448     1    0.986893047836    1.923610422150    0.192068016869    0.200000000000   1.367091928386e-02   1.404315193216e-02   1.284950504258e-01
    381     1    1.386602285202    1.926136663570    0.194898628217    0.200000000000  -1.192330726890e-02   5.502777960549e-03   5.448683732038e-02
    477     1    1.785074742854    1.927680847882    0.191018875743    0.200000000000   7.145521695225e-03   1.540719192040e-02   1.641635487432e-01
    765     1    2.342624889859    1.998909345159    0.199305894497    0.200000000000  -3.084698108851e-04  -1.829617317052e-04   1.054726203261e-03
    197     1    3.059294582262    2.047830146193    0.194657812625    0.200000000000  -2.757452768507e-03   1.366460586257e-02   5.938571148516e-02
    283     1    3.751509063271    2.048062927364    0.202148254905    0.200000000000   8.832354052091e-05   7.049157041461e-05   2.993779687621e-04
    699     1    4.455700705798    2.024478060669    0.195987468075    0.200000000000  -3.297693470036e-04  -9.136709724505e-03   3.407873834976e-02
    890     1    0.197839993486    2.410605611975    0.191806897287    0.200000000000   1.862279085833e-02   5.744334210270e-03   1.377877844097e-01
    793     1    0.784699900700    2.267763949986    0.196503464379    0.200000000000   6.851652918605e-03  -2.017754592304e-04   2.504231597226e-02
     64     1    1.184121265252    2.270064326524    0.190320075562    0.200000000000  -8.635767177625e-03  -3.130619258602e-03   1.916717218055e-01
      3     1    1.581696750105    2.309890872209    0.196356997068    0.200000000000   6.149492504807e-03  -4.619180850790e-03   2.773415239483e-02
    281     1    2.027057339636    2.243999629864    0.196941143168    0.200000000000  -5.579042847003e-03   1.631931662261e-03   2.001093934348e-02
    794     1    2.367565353614    2.450854244308    0.194469369113    0.200000000000   1.274381182985e-02  -6.799954981202e-03   6.280605424200e-02
    545     1    2.698708917804    2.228354038609    0.193190005173    0.200000000000   1.272461851578e-02   1.329727104711e-02   9.595085824674e-02
     78     1    3.059533314232    2.447807072682    0.191090359426    0.200000000000  -7.627778354956e-03  -1.562680065936e-02   1.633242625908e-01
    891     1    3.405748349766    2.247715652098    0.192962943238    0.200000000000  -1.752224598457e-02   6.766936918364e-03   1.017036824462e-01
    193     1    3.751378286649    2.447151481018    0.197442001765    0.200000000000   2.261005950838e-03  -1.106821331606e-03   1.158911718116e-02
    199     1    4.097096667203    2.246970596409    0.192698650300    0.200000000000   1.765289543718e-02   7.565227739222e-03   1.092655926873e-01
    430     1    4.455862619245    2.423041049888    0.190134117110    0.200000000000  -2.002482358551e-03  -8.529408851882e-04   1.989523896598e-01
    744     1    4.802171945379    2.223497708806    0.193705690287    0.200000000000  -1.118606273849e-02   1.289409184164e-02   8.215621504496e-02
    161     1    0.199492410184    2.809408367358    0.197985386723    0.200000000000   1.181609723629e-03  -2.541624445650e-03   8.947422171914e-03
    889     1    0.585171659341    2.612736325295    0.193188823137    0.200000000000  -1.361576048141e-02  -1.230588597224e-02   9.562047103293e-02
    665     1    0.940403802802    2.800204003839    0.202420293816    0.200000000000   0.000000000000e+00   0.000000000000e+00   0.000000000000e+00
    166     1    1.347388247536    2.633237424593    0.194055119259    0.200000000000  -5.308943381325e-03  -1.518852794316e-02   7.387796130320e-02
     81     1    2.018045780274    2.643076689376    0.199841588568    0.200000000000  -6.534584620855e-05  -6.524788599968e-05   2.638487263469e-04
    519     1    2.709601622932    2.656317689823    0.197441046867    0.200000000000   1.032864804661e-03   1.167861409571e-04   1.103673781827e-02
    532     1    3.405602756982    2.647042982391    0.198023345419    0.200000000000  -1.482339552220e-03  -2.210065677170e-03   8.468699378483e-03
    141     1    4.097414910388    2.646128310668    0.197571966553    0.200000000000   2.060503277841e-03  -3.242889787242e-03   1.261571840266e-02
    731     1    4.802287761546    2.622336674346    0.193922142518    0.200000000000  -1.048427570520e-02  -1.264297355686e-02   7.669655190659e-02
    897     1    0.591585806923    3.010902789046    0.193911261100    0.200000000000  -1.278497409052e-02   1.028634962989e-02   7.669503247598e-02
    854     1    1.288928660585    3.026923081174    0.192345263753    0.200000000000   1.744314653604e-02   8.879023915083e-03   1.200567574713e-01
    723     1    1.679604337296    2.853399782837    0.193458974076    0.200000000000  -1.274747513490e-02   1.217372517228e-02   8.786167561891e-02
    825     1    2.020810408511    3.060253590400    0.195585825093    0.200000000000  -1.025148983748e-02  -2.026207167916e-03   4.036913260364e-02
    850     1    2.359651354215    2.849705072336    0.196490154713    0.200000000000   6.059324961410e-03   3.984930665335e-03   2.586776392104e-02
     36     1    2.701123442338    3.056055390356    0.191497179805    0.200000000000   1.825171535764e-02  -5.038968273895e-03   1.485479954957e-01
     40     1    3.060158605484    2.847005103240    0.192518557418    0.200000000000  -5.680108397269e-03   1.865180855662e-02   1.152847764461e-01
    908     1    3.406098762117    3.046453376525    0.192631585288    0.200000000000  -1.930640677579e-02   1.741679304542e-04   1.113550156123e-01
    783     1    3.751390774995    2.846163563820    0.199150936183    0.200000000000   5.284494165324e-04   3.061896780263e-04   1.811310260109e-03
    240     1    4.096977912592    3.045025469909    0.192311475269    0.200000000000   1.953936142419e-02   8.279659643722e-04   1.207872143788e-01
    683     1    4.456063987356    2.821536143760    0.195627744208    0.200000000000  -4.456034867399e-04   1.047401915976e-02   4.040162857058e-02
    515     1    4.802409807090    3.020723726352    0.192469467969    0.200000000000  -1.592379341676e-02   1.132059657852e-02   1.167310058762e-01
    873     1    0.197803180305    3.208022821106    0.191689297109    0.200000000000   1.913969263628e-02  -2.563214417818e-03   1.415312737273e-01
    145     1    0.588864546349    3.409843727876    0.195078669303    0.200000000000  -7.936146425364e-03  -9.538741486571e-03   5.047343327209e-02
    735     1    0.936035848805    3.212113365748    0.196707330241    0.200000000000  -3.123972543535e-03  -6.416884784843e-04   1.894886306306e-02
    343     1    1.287933312535    3.425638581304    0.197019783833    0.200000000000   2.863714235794e-03  -4.720815349705e-03   1.888719516012e-02
     74     1    1.670492694085    3.252612147832    0.193969495058    0.200000000000  -8.404409126671e-03  -1.392490997897e-02   7.545466778299e-02
    518     1    2.361952011801    3.267033416344    0.198923901407    0.200000000000   6.061779197867e-04  -6.464060516857e-04   2.662987882601e-03
    666     1    3.057275866708    3.250833710748    0.192872423661    0.200000000000  -4.056405171240e-03  -1.860641697512e-02   1.050092586867e-01
    815     1    3.751557983493    3.245552627099    0.198911497621    0.200000000000   7.974914283157e-04  -4.419774265048e-04   2.741834686297e-03
    149     1    4.456026655914    3.220350333715    0.190478480364    0.200000000000  -1.984297131294e-03  -1.177911958684e-02   1.857583725209e-01
    122     1    4.802366140009    3.419450744671    0.195829545452    0.200000000000  -5.076830522913e-03  -8.301129000060e-03   3.679595466519e-02
    267     1    0.199085423768    3.606569918749    0.196455554738    0.200000000000   3.535902578619e-03   6.543398906915e-03   2.661924039236e-02
    144     1    0.933897671133    3.610896839081    0.201396564298    0.200000000000  -4.796633532789e-05   3.942934323398e-05   1.684212819750e-04
    840     1    1.662081442868    3.651264775559    0.191145112119    0.200000000000  -1.273410727806e-02   1.223173273842e-02   1.608210425584e-01
    852     1    2.012084944762    3.459447061421    0.197731172945    0.200000000000  -2.458271351505e-03   2.342201619646e-03   1.102295457018e-02
    992     1    2.352802874996    3.667071488295    0.195621867374    0.200000000000   1.026445408897e-02   7.136141548924e-04   3.960352079048e-02
      5     1    2.713682770571    3.455070213201    0.194830016996    0.200000000000   4.296628136724e-03   1.257414297280e-02   5.550288664244e-02
    935     1    3.062118841087    3.649837272480    0.190956073232    0.200000000000  -9.444132634100e-03   1.365327438377e-02   1.679989564717e-01
    285     1    3.405765626072    3.445924386372    0.198156838069    0.200000000000  -1.274657546920e-03   1.915129058129e-03   7.252801803489e-03
    212     1    3.752044671437    3.644674386192    0.197546242070    0.200000000000   3.052363058750e-03   1.209115273358e-03   1.176092891660e-02
    909     1    4.097853916434    3.443727964017    0.198160620731    0.200000000000   1.224364544589e-03   2.058239996543e-03   7.556707744030e-03
    424     1    4.456509006968    3.618791339354    0.193384624020    0.200000000000  -1.142507490219e-03   1.792138913981e-02   9.072861737627e-02
    790     1    0.197937827901    4.005489173374    0.192167478041    0.200000000000   1.703886184513e-02  -9.873444493304e-03   1.262383597543e-01
    833     1    0.574092693447    3.808100808501    0.191440714059    0.200000000000  -1.512395002759e-02   1.112683902005e-02   1.504092238715e-01
    878     1    0.918641310033    4.009257199249    0.194859559703    0.200000000000  -1.202253187597e-02  -5.047521299307e-03   5.421644636391e-02
    987     1    1.271887428771    3.823837890618    0.193768059536    0.200000000000   1.662642312926e-02   1.267545404124e-03   7.933820217431e-02
    906     1    1.613980121868    4.047406506456    0.195489761966    0.200000000000   4.174174255368e-03  -9.874959760840e-03   4.177278302069e-02
    575     1    1.981410800232    3.891490095409    0.195641240882    0.200000000000  -4.143695770720e-03  -9.282133892585e-03   3.903672109692e-02
    252     1    2.704781522764    3.904236058526    0.197712359425    0.200000000000   1.133599125204e-03  -2.722899409830e-03   1.012936216026e-02
    729     1    3.071779560167    4.062185159104    0.197444952998    0.200000000000  -1.029649162620e-03  -5.385090295707e-04   1.094051486356e-02
    625     1    3.408470242251    3.847676132809    0.193325808607    0.200000000000  -1.664984612931e-02  -6.630387364838e-03   9.115875680152e-02
    690     1    3.754474664287    4.044741673205    0.201090495253    0.200000000000   9.715742918726e-05  -7.962975661924e-05   3.444374002228e-04
    521     1    4.098428661497    3.842506066226    0.192402175428    0.200000000000   1.845778977274e-02  -6.290659231235e-03   1.179838638819e-01
    538     1    4.457324340409    4.017597224605    0.191421558674    0.200000000000  -2.349690379564e-03  -1.858923656712e-02   1.514697492536e-01
     16     1    4.803024310173    3.817878453554    0.191852953701    0.200000000000  -1.882996379278e-02   5.158933836278e-03   1.360776686109e-01
    705     1    0.556385577107    4.207013550950    0.195297406791    0.200000000000  -1.651676912345e-03  -1.152933268674e-02   4.633887272161e-02
     44     1    1.255893803593    4.222151482289    0.204572747493    0.200000000000   2.153181153677e-04   2.228964674824e-04   7.681353329581e-04
     50     1    2.339744713384    4.066154450644    0.204881130578    0.200000000000  -8.928785615003e-05   8.956771908464e-05   3.089474500175e-04
     43     1    3.365341618940    4.372930154620    0.196622145467    0.200000000000  -4.632370908029e-04  -4.391463807166e-03   2.061344582694e-02
    415     1    4.101461593452    4.241136477962    0.195455410869    0.200000000000   6.326215802113e-03   9.003652118367e-03   4.307616106541e-02
    823     1    4.804070844924    4.216576274611    0.198463149773    0.200000000000  -8.309722180493e-04  -1.641663420151e-03   5.698843148707e-03
    603     1    0.198114300549    4.404050675937    0.194409364247    0.200000000000   8.816635989010e-03   1.193225254158e-02   6.509398502203e-02
    900     1    0.543089432131    4.605504778839    0.190159920930    0.200000000000   2.758187813992e-03   2.819984606288e-03   1.981583486961e-01
    408     1    0.902329872996    4.407179188347    0.194667246644    0.200000000000  -9.443938848617e-03   1.010150690140e-02   5.880228400895e-02
    653     1    1.240564616626    4.620018833307    0.195661403983    0.200000000000  -9.987913515854e-03  -1.547636852215e-03   3.874536858763e-02
    207     1    1.729192110280    4.429204138129    0.196038959595    0.200000000000   8.328235853435e-03   2.943296498847e-03   3.274114229379e-02
    899     1    2.184288470452    4.434422681440    0.196944880125    0.200000000000  -5.361696166672e-03   1.349494095773e-03   1.913587796605e-02
    846     1    2.580437414860    4.383883750369    0.195620726229    0.200000000000  -3.407953329456e-04   1.020467809122e-02   3.927750759470e-02
    148     1    2.973761373132    4.449294876877    0.196273845487    0.200000000000   7.962009267224e-03   4.170342008536e-04   2.895103726985e-02
     90     1    3.757927713937    4.443759884566    0.195872930542    0.200000000000   9.265016254656e-03   1.236050221082e-03   3.514130007426e-02
    188     1    4.459673771795    4.415525532072    0.191776132149    0.200000000000  -3.310542302837e-03   1.900733062329e-02   1.366672953694e-01
    105     1    0.196844819211    4.803298452274    0.193383440418    0.200000000000   1.268031700852e-02  -1.272874301449e-02   9.079998866343e-02
    201     1    0.888045485471    4.805415159503    0.192893434587    0.200000000000  -1.109314518067e-02  -1.539548944149e-02   1.041704087799e-01
    312     1    1.593128130806    4.804244375033    0.194429646009    0.200000000000   1.138894010155e-02  -9.260323255435e-03   6.418867549445e-02
    736     1    1.991703353786    4.801730810555    0.193339444289    0.200000000000  -1.317545597009e-02  -1.233103685972e-02   9.179699854633e-02
    757     1    2.389816639343    4.801880723957    0.192821301456    0.200000000000   1.265293665798e-02  -1.430953702780e-02   1.062897226086e-01
    921     1    2.788357388109    4.802558338883    0.195046063591    0.200000000000  -1.037827788228e-02  -7.100601870099e-03   5.134703106700e-02
    717     1    3.186713886458    4.802101351080    0.191964421963    0.200000000000   8.048607943633e-03  -1.788913535976e-02   1.324951498831e-01
    112     1    3.585322265733    4.802955501138    0.197306516404    0.200000000000  -4.131320619382e-03  -2.212812771480e-03   1.569769081840e-02
    930     1    3.984130519757    4.802174916381    0.191662147770    0.200000000000   1.291090534197e-04  -1.927654391052e-02   1.426429978671e-01
    589     1    4.382927594199    4.805324499777    0.197612021566    0.200000000000   3.417634244089e-03  -1.932696510983e-03   1.287732361740e-02
     11     1    4.800458060761    4.687500000000    0.198233003673    0.200000000000  -6.840824370192e-04   5.378480167259e-15   5.182544284906e-03
  40811     3    0.234375000000    0.234375000000    0.462125000000    0.078125000000   0.000000000000e+00   0.000000000000e+00   0.000000000000e+00
  40810     3    0.078125000000    0.234375000000    0.462125000000    0.078125000000   0.000000000000e+00   0.000000000000e+00   0.000000000000e+00
  40779     3    0.234375000000    0.078125000000    0.462125000000    0.078125000000   0.000000000000e+00   0.000000000000e+00   0.000000000000e+00
  40778     3    0.078125000000    0.078125000000    0.462125000000    0.078125000000   0.000000000000e+00   0.000000000000e+00   0.000000000000e+00
  40780     3    0.390625000000    0.078125000000    0.462125000000    0.078125000000   0.000000000000e+00   0.000000000000e+00   0.000000000000e+00
  40813     3    0.546875000000    0.234375000000    0.462125000000    0.078125000000   0.000000000000e+00   0.000000000000e+00   0.000000000000e+00
  40781     3    0.546875000000    0.078125000000    0.462125000000    0.078125000000   0.000000000000e+00   0.000000000000e+00   0.000000000000e+00
  40812     3    0.390625000000    0.234375000000    0.462125000000    0.078125000000  -1.310375121067e+01   1.213022952256e+02   8.568149297397e+02
  40783     3    0.859375000000    0.078125000000    0.462125000000    0.078125000000   0.000000000000e+00   0.000000000000e+00   0.000000000000e+00
  40815     3    0.859375000000    0.234375000000    0.462125000000    0.078125000000   5.626197146749e+01   3.240105951560e+01   2.286643921606e+02
  40814     3    0.703125000000    0.234375000000    0.462125000000    0.078125000000   0.000000000000e+00   0.000000000000e+00   0.000000000000e+00
  40782     3    0.703125000000    0.078125000000    0.462125000000    0.078125000000   0.000000000000e+00   0.000000000000e+00   0.000000000000e+00
  40784     3    1.015625000000    0.078125000000    0.462125000000    0.078125000000   0.000000000000e+00   0.000000000000e+00   0.000000000000e+00
  40817     3    1.171875000000    0.234375000000    0.462125000000    0.078125000000  -6.338420789042e+01   1.090682118164e+02   7.890230967809e+02
  40785     3    1.171875000000    0.078125000000    0.462125000000    0.078125000000   0.000000000000e+00   0.000000000000e+00   0.000000000000e+00
  40816     3    1.015625000000    0.234375000000    0.462125000000    0.078125000000   0.000000000000e+00   0.000000000000e+00   0.000000000000e+00
  40819     3    1.484375000000    0.234375000000    0.462125000000    0.078125000000   0.000000000000e+00   0.000000000000e+00   0.000000000000e+00
  40786     3    1.328125000000    0.078125000000    0.462125000000    0.078125000000   0.000000000000e+00   0.000000000000e+00   0.000000000000e+00
  40787     3    1.484375000000    0.078125000000    0.462125000000    0.078125000000   0.000000000000e+00   0.000000000000e+00   0.000000000000e+00
  40818     3    1.328125000000    0.234375000000    0.462125000000    0.078125000000   0.000000000000e+00   0.000000000000e+00   0.000000000000e+00
  40788     3    1.640625000000    0.078125000000    0.462125000000    0.078125000000   0.000000000000e+00   0.000000000000e+00   0.000000000000e+00
  40789     3    1.796875000000    0.078125000000    0.462125000000    0.078125000000   0.000000000000e+00   0.000000000000e+00   0.000000000000e+00
  40820     3    1.640625000000    0.234375000000    0.462125000000    0.078125000000   8.888237420976e+01   6.786648612186e+01   4.937100063807e+02
  40821     3    1.796875000000    0.234375000000    0.462125000000    0.078125000000   0.000000000000e+00   0.000000000000e+00   0.000000000000e+00
  40790     3    1.953125000000    0.078125000000    0.462125000000    0.078125000000   0.000000000000e+00   0.000000000000e+00   0.000000000000e+00
  40823     3    2.109375000000    0.234375000000    0.462125000000    0.078125000000   0.000000000000e+00   0.000000000000e+00   0.000000000000e+00
  40791     3    2.109375000000    0.078125000000    0.462125000000    0.078125000000   0.000000000000e+00   0.000000000000e+00   0.000000000000e+00
  40822     3    1.953125000000    0.234375000000    0.462125000000    0.078125000000  -9.014531395575e+01   8.512525236555e+01   6.275972717311e+02
  40825     3    2.421875000000    0.234375000000    0.462125000000    0.078125000000   8.322240171267e+01   9.594205475724e+01   7.124072688093e+02
  40824     3    2.265625000000    0.234375000000    0.462125000000    0.078125000000   0.000000000000e+00   0.000000000000e+00   0.000000000000e+00
  40793     3    2.421875000000    0.078125000000    0.462125000000    0.078125000000   0.000000000000e+00   0.000000000000e+00   0.000000000000e+00
  40792     3    2.265625000000    0.078125000000    0.462125000000    0.078125000000   0.000000000000e+00   0.000000000000e+00   0.000000000000e+00
  40794     3    2.578125000000    0.078125000000    0.462125000000    0.078125000000   0.000000000000e+00   0.000000000000e+00   0.000000000000e+00