ITEM: TIMESTEP
1180000
ITEM: NUMBER OF ATOMS
1208
ITEM: BOX BOUNDS ff ff ff
0.0000000000000000e+00 5.0000000000000000e+00
0.0000000000000000e+00 5.0000000000000000e+00
0.0000000000000000e+00 3.0156250000000000e+01
ITEM: ATOMS id type x y z radius fx fy fz
    664     1    1.181803850257    0.189280710767    0.195205661954    0.200000000000  -4.335815031747e-04  -2.551023222390e-04   2.879842091943e-04
    297     1    1.928968566273    0.204299364843    0.199218178051    0.200000000000   6.893837122718e-04   2.587044501650e-03  -8.590796977259e-05
     54     1    2.327903068999    0.190088241969    0.194359597444    0.200000000000   8.409098440125e-04   4.073312234973e-04   2.459941118218e-04
    911     1    2.724256867286    0.191031186995    0.194674869668    0.200000000000   1.100510778977e-03   3.142499882223e-04   2.670040004205e-04
    331     1    3.462935836666    0.194252319508    0.192367437410    0.200000000000   9.265380065511e-04  -2.573827186773e-04  -1.469705523505e-04
    819     1    4.111565754199    0.186133599823    0.195407504570    0.200000000000  -3.267940964969e-04  -4.145892083799e-04  -2.265182384917e-04
     41     1    0.502313066432    0.386114826455    0.188772934169    0.200000000000   1.928624879900e-04   1.170506982244e-03   9.678413948677e-05
    298     1    0.980256405261    0.540761699381    0.223059325467    0.200000000000   0.000000000000e+00   0.000000000000e+00   0.000000000000e+00
    642     1    1.384145069202    0.527276941400    0.193296726288    0.200000000000  -3.058814150323e-04  -4.492234176172e-04  -3.645122541229e-04
    287     1    2.931676236484    0.529307035868    0.195281499000    0.200000000000   1.920286226124e-03   1.253702165365e-04  -1.694019988463e-05
     40     1    4.103147234197    0.581374405264    0.194985007959    0.200000000000  -7.648095131369e-04  -3.867784886109e-04  -9.409473648248e-05
     29     1    4.470560667113    0.351986878842    0.194857953748    0.200000000000   4.035212736233e-04  -2.328841431540e-03  -3.548584073201e-04
    971     1    4.804372352369    0.568200473500    0.196504248686    0.200000000000  -5.192123498343e-04  -5.884260692716e-04   5.915987060234e-05
     14     1    1.581533573354    0.871094089177    0.191989808034    0.200000000000  -6.107460448102e-04  -3.573643652104e-04  -1.874738260312e-04
    246     1    1.975585131370    0.841892030320    0.193303896937    0.200000000000  -5.114176752980e-04  -6.403209702684e-05  -1.454082415648e-04
    156     1    2.711883078416    0.861409993050    0.194626555304    0.200000000000  -5.513213830664e-05  -1.011391469782e-03   2.799006746841e-04
    996     1    3.448699504499    0.928029224303    0.193197333601    0.200000000000   8.292561630413e-06   8.025712461842e-04  -7.844806145840e-05
    418     1    0.233583590889    0.949252636434    0.191427610610    0.200000000000   8.956810985137e-05   8.717408331352e-04   1.651439615671e-04
    860     1    0.861043372428    0.949343090516    0.188585695770    0.200000000000  -1.504576451652e-04   6.127205811048e-04  -1.711485317628e-04
    490     1    1.356556383963    1.200303728603    0.196734810669    0.200000000000  -4.740679418659e-04  -5.778694267466e-04   2.200881000363e-04
    429     1    2.171354551556    1.188281009863    0.194356200691    0.200000000000  -9.118609847254e-04   4.064508777360e-05  -8.540364683540e-05
    837     1    2.918421935364    1.201814542036    0.195350155684    0.200000000000  -1.757637841768e-03   3.288317202002e-04  -5.259486260911e-05
    541     1    3.788561894912    1.131645169812    0.193629036194    0.200000000000   6.517904999319e-04  -1.261442642104e-04  -1.942593632975e-05
    601     1    4.471210276547    1.099693172895    0.195119723399    0.200000000000   1.314824325950e-04  -1.955808329792e-03   2.290721084819e-05
    941     1    0.553542960027    1.518604400894    0.194067335974    0.200000000000  -2.575612449872e-04   1.886162749796e-03   3.998021819598e-04
    506     1    1.619592092850    1.499791103730    0.193530954494    0.200000000000  -3.044428780663e-04  -2.911989222581e-04  -5.430239752968e-05
    383     1    2.370332122589    1.531640260864    0.197642771725    0.200000000000  -1.477120864970e-03   5.555582492874e-04   9.468500701360e-05
    955     1    3.113917282374    1.546240894343    0.194503528396    0.200000000000  -7.170347378460e-04   3.610319584826e-05   1.180527203815e-04
    989     1    4.139492528201    1.316103343572    0.189736599615    0.200000000000   8.420954452035e-04  -6.482563787031e-04  -7.929980938570e-05
    139     1    4.807265249838    1.310246179570    0.195875230532    0.200000000000  -3.342408305705e-04  -7.183734583916e-04   2.034501746380e-04
    293     1    0.193599398594    1.684765072020    0.194476382392    0.200000000000  -4.684779505230e-04   9.714465643994e-04   5.234093219997e-05
    817     1    0.915443759272    1.679906128393    0.192549402826    0.200000000000   5.479206666488e-04  -3.453839062209e-04  -3.717998156390e-04
    423     1    2.145601745112    1.860245181408    0.195318151345    0.200000000000  -2.205355329310e-03   3.413495448126e-04   2.391063030132e-04
    605     1    2.578739107744    1.869295355119    0.190524890058    0.200000000000  -1.381513923042e-03   4.144974748312e-04  -3.263880307713e-05
    576     1    3.489486452256    1.665186525636    0.192935507537    0.200000000000   4.047898258411e-05  -7.612569820279e-04   3.155977901770e-04
    171     1    4.130243245356    1.713008508974    0.195832696698    0.200000000000   1.585692302988e-03  -6.014417598493e-04  -8.977790804465e-05
    130     1    0.192404463126    2.078466683881    0.192348682820    0.200000000000  -2.235116223391e-03   8.001135419418e-04  -9.226744624584e-04
    778     1    1.392201894837    1.897720294913    0.196726101129    0.200000000000  -3.027149521335e-04  -8.468203409488e-04  -4.266110384208e-04
    649     1    3.442805573122    2.059073119673    0.197764980137    0.200000000000  -6.173781730684e-05  -6.586540943201e-04   1.052448897099e-04
    731     1    4.807179429151    2.052804919290    0.194732923709    0.200000000000   2.150761293690e-04   6.216769601501e-05   2.963481526308e-04
    739     1    0.546588370239    2.258079962158    0.197137669704    0.200000000000  -4.628928200016e-03   4.231540947281e-03   7.781470734187e-04
    657     1    1.192246129710    2.241495734043    0.198443746179    0.200000000000  -1.994955599113e-03  -2.008955377349e-03  -3.489981096862e-04
    420     1    2.547819335327    2.478125089776    0.191884944518    0.200000000000   9.991229027844e-04   7.455852812993e-05   1.001795354341e-03
    435     1    3.118052011464    2.288128118157    0.191798083566    0.200000000000   3.042082408452e-04  -1.352054147987e-04  -4.940149701724e-04
    726     1    3.785701340922    2.261795544796    0.192739280840    0.200000000000  -1.958212573859e-05  -2.471820005290e-04  -8.015907405934e-05
     55     1    4.127566931190    2.459390959218    0.194595154415    0.200000000000   1.255996148095e-04  -3.478335158250e-04  -1.477985000520e-05
    311     1    4.464809948729    2.251625915702    0.197374193370    0.200000000000   4.594541520038e-04   3.359265794669e-04   2.757407595482e-04
    385     1    0.197731940917    2.812485458446    0.190586059030    0.200000000000  -2.015996470923e-04  -4.474067283887e-04  -2.697795832773e-04
     31     1    1.188467240364    2.638951106021    0.191014839622    0.200000000000  -7.195297293194e-04  -1.979219105780e-03   1.690598210189e-04
    303     1    1.817613320381    2.519525661870    0.189263531265    0.200000000000  -1.787894902154e-04   9.496344042742e-04  -2.492614135008e-04
     37     1    2.794477881743    2.789296721752    0.190758874712    0.200000000000   4.992846408012e-04   1.211464640100e-03   2.517926272958e-04
    611     1    3.463402487986    2.802498289510    0.193974111835    0.200000000000   4.877300824314e-04  -7.266431638098e-04  -3.709297061505e-06
    586     1    4.795054351549    2.803396879160    0.198526856946    0.200000000000  -1.417841669139e-04   1.152228825342e-03   4.758178123012e-04
    507     1    0.549916765754    3.023497040120    0.198660298618    0.200000000000  -1.738533933128e-03  -1.140387300101e-03  -1.661237640675e-04
    753     1    1.715404942476    3.071857777889    0.190432690529    0.200000000000   4.851057537742e-04  -1.916757570634e-04   7.085451964031e-04
    199     1    2.056536652911    2.866090787598    0.198304446223    0.200000000000   1.465569439368e-03   1.598863553655e-03  -1.708804665270e-04
    549     1    3.127639643562    3.017754985138    0.193021439929    0.200000000000   7.794112607002e-04  -9.026793795353e-04  -8.160081409869e-04
    516     1    3.800096282804    3.013639258298    0.197049315346    0.200000000000   4.636368447134e-05  -1.984008427244e-04   1.232043576351e-04
    587     1    4.161475099076    2.851803078899    0.192949767427    0.200000000000  -1.248056333049e-04  -1.774138371857e-04   1.587779401007e-04
    380     1    0.936632491960    3.203599228336    0.193379247328    0.200000000000   7.774031152983e-04  -8.299056177529e-04   2.508426889563e-04
    763     1    2.339399995726    3.183447583801    0.192348050471    0.200000000000   3.508695284408e-04   6.261281375538e-04   4.380590763731e-04
    953     1    3.807925078375    3.410722082558    0.192853383335    0.200000000000  -1.305564950521e-03  -1.248293891681e-04  -5.270207282138e-05
    480     1    4.463712526182    3.394833617663    0.196416368161    0.200000000000  -1.464772446359e-03   2.622773252439e-04  -2.616507578637e-04
    889     1    4.811313373465    3.201577967982    0.192816492581    0.200000000000  -5.626621150978e-04   1.412685819056e-03   3.086813405844e-04
    260     1    0.206610251714    3.547602504862    0.190669564840    0.200000000000  -5.999836204634e-04  -7.095185854777e-04   3.828794910987e-05
    832     1    0.873515207954    3.593297408515    0.193656242373    0.200000000000   3.307630278889e-04  -7.277638372448e-04  -1.263546382688e-04
    752     1    1.899407752351    3.668636464552    0.191578895032    0.200000000000   8.775216503409e-04   2.065228082085e-03  -3.194850414729e-04
    268     1    2.606462079462    3.475213572415    0.188903356788    0.200000000000   5.000733312728e-04   7.628189424693e-04   3.748796336822e-04
    666     1    1.198380870502    3.818698376522    0.191754876337    0.200000000000   3.522917605628e-04  -1.512312791510e-04  -6.374634540407e-05
    940     1    2.473745361052    3.911599958904    0.194219646629    0.200000000000   8.206370806566e-04   3.537420696623e-04  -6.507871087251e-04
    847     1    3.170807382473    3.764778173207    0.186847164872    0.200000000000   9.000021504077e-04   2.398846099410e-03  -2.983208426031e-04
    288     1    4.442175452558    3.790548949786    0.193361784148    0.200000000000  -6.246832095438e-04   2.492670999604e-04   2.605061675922e-04
    187     1    4.808131008735    3.940755184094    0.192949209815    0.200000000000  -8.275229118470e-04   1.681999585451e-03   1.238466160203e-04
    144     1    0.187455770234    4.272545244544    0.187927583578    0.200000000000   2.104625127643e-04  -5.638757859065e-04   8.697963949089e-05
    797     1    0.574761585915    4.177578825114    0.194725986416    0.200000000000  -1.745912337151e-04  -2.176970818238e-03   6.286840543339e-04
    404     1    1.763008720385    4.130696679804    0.193845524075    0.200000000000   1.290666504626e-03  -6.237422909706e-05   2.199321766057e-04
    182     1    2.331816975686    4.283366533819    0.197366590398    0.200000000000   1.225798099463e-03   6.271995959852e-04  -5.075143803879e-04
    394     1    2.802962990882    4.136747822795    0.193678697878    0.200000000000  -4.704027232214e-04   1.429722173483e-03  -1.657081220401e-04
    915     1    3.552251679910    4.127516641352    0.196200513690    0.200000000000  -9.991422524160e-04   1.137718262412e-03   2.086735568128e-04
    273     1    4.003216175377    4.123992857735    0.194922479471    0.200000000000   1.379954735618e-03  -2.111173288656e-03   4.146735799395e-04
    363     1    1.208563202589    4.496180337964    0.192345673700    0.200000000000   5.846859517180e-04  -1.101235024881e-04  -2.495838957657e-04
    235     1    1.978480245011    4.465583417585    0.197036426402    0.200000000000   1.019028480016e-03   2.900480193295e-04  -7.822609444474e-05
    207     1    3.020416339367    4.470713367396    0.192352053246    0.200000000000  -4.692298767824e-04   1.465198595037e-03  -5.373182759740e-04
    447     1    3.765076240305    4.464816652279    0.194381509303    0.200000000000  -8.172749824871e-04   1.205162206847e-03  -1.332896130180e-05
    675     1    4.504757110882    4.493734387970    0.184140164034    0.200000000000  -3.511347028523e-04   4.484979111401e-04  -3.198920767318e-04
    980     1    0.200137085499    4.799993647284    0.200089043415    0.200000000000   0.000000000000e+00   0.000000000000e+00   0.000000000000e+00
    593     1    0.642969214749    4.815916115999    0.186247805644    0.200000000000  -2.017961072695e-04  -2.077435202430e-04   2.321539525383e-04
    175     1    1.766897008026    4.803500312939    0.190708931060    0.200000000000   4.037146283178e-04   3.629207897875e-05  -6.356393919305e-05
    977     1    2.500390065243    4.806968757062    0.189128451711    0.200000000000   1.170772473253e-05   6.840701035876e-04  -2.918700272403e-04
    312     1    3.236838126387    4.805474665307    0.192269646823    0.200000000000  -2.514781609252e-05   1.003800294042e-03   7.871065167819e-05
    474     1    3.971775638782    4.806073620104    0.192595340826    0.200000000000   2.187628315423e-04   1.718368061143e-04  -1.406136468631e-04
    893     1    4.788194848268    4.777769711617    0.277867993550    0.200000000000   0.000000000000e+00   0.000000000000e+00   0.000000000000e+00
    431     1    0.192228149302    0.188193712558    0.334033539789    0.200000000000   6.927060735782e-03   7.620208920116e-03   4.150966628262e-02
  40778     3    0.078125000000    0.078125000000    0.602125000000    0.078125000000   0.000000000000e+00   0.000000000000e+00   0.000000000000e+00
  40810     3    0.078125000000    0.234375000000    0.602125000000    0.078125000000   0.000000000000e+00   0.000000000000e+00   0.000000000000e+00
  40811     3    0.234375000000    0.234375000000    0.602125000000    0.078125000000   5.490168697725e+01   6.015705903725e+01   3.492235643699e+02
  40779     3    0.234375000000    0.078125000000    0.602125000000    0.078125000000   0.000000000000e+00   0.000000000000e+00   0.000000000000e+00
  40780     3    0.390625000000    0.078125000000    0.602125000000    0.078125000000   0.000000000000e+00   0.000000000000e+00   0.000000000000e+00
  40812     3    0.390625000000    0.234375000000    0.602125000000    0.078125000000   0.000000000000e+00   0.000000000000e+00   0.000000000000e+00
  40813     3    0.546875000000    0.234375000000    0.602125000000    0.078125000000   0.000000000000e+00   0.000000000000e+00   0.000000000000e+00
  40781     3    0.546875000000    0.078125000000    0.602125000000    0.078125000000   0.000000000000e+00   0.000000000000e+00   0.000000000000e+00
     21     1    0.812430685243    0.192339273338    0.336478833068    0.200000000000   2.327577244454e-02   2.135129173882e-02   1.350476358300e-01
  40782     3    0.703125000000    0.078125000000    0.602125000000    0.078125000000   0.000000000000e+00   0.000000000000e+00   0.000000000000e+00
  40814     3    0.703125000000    0.234375000000    0.602125000000    0.078125000000   0.000000000000e+00   0.000000000000e+00   0.000000000000e+00
  40815     3    0.859375000000    0.234375000000    0.602125000000    0.078125000000   1.487309709286e+02   1.331793734122e+02   8.416314611401e+02
  40783     3    0.859375000000    0.078125000000    0.602125000000    0.078125000000   0.000000000000e+00   0.000000000000e+00   0.000000000000e+00
  40817     3    1.171875000000    0.234375000000    0.602125000000    0.078125000000   0.000000000000e+00   0.000000000000e+00   0.000000000000e+00
  40784     3    1.015625000000    0.078125000000    0.602125000000    0.078125000000   0.000000000000e+00   0.000000000000e+00   0.000000000000e+00
  40785     3    1.171875000000    0.078125000000    0.602125000000    0.078125000000   0.000000000000e+00   0.000000000000e+00   0.000000000000e+00
  40816     3    1.015625000000    0.234375000000    0.602125000000    0.078125000000   0.000000000000e+00   0.000000000000e+00   0.000000000000e+00
     73     1    1.554407980044    0.196075362796    0.337048042623    0.200000000000  -2.090464530920e-03   1.093584688647e-03   8.225517592093e-03
  40787     3    1.484375000000    0.078125000000    0.602125000000    0.078125000000   0.000000000000e+00   0.000000000000e+00   0.000000000000e+00
  40819     3    1.484375000000    0.234375000000    0.602125000000    0.078125000000  -2.779939057001e+01   1.520293122173e+01   1.052215387648e+02
  40818     3    1.328125000000    0.234375000000    0.602125000000    0.078125000000   0.000000000000e+00   0.000000000000e+00   0.000000000000e+00
  40786     3    1.328125000000    0.078125000000    0.602125000000    0.078125000000   0.000000000000e+00   0.000000000000e+00   0.000000000000e+00
  40821     3    1.796875000000    0.234375000000    0.602125000000    0.078125000000   0.000000000000e+00   0.000000000000e+00   0.000000000000e+00
  40789     3    1.796875000000    0.078125000000    0.602125000000    0.078125000000   0.000000000000e+00   0.000000000000e+00   0.000000000000e+00
  40788     3    1.640625000000    0.078125000000    0.602125000000    0.078125000000   0.000000000000e+00   0.000000000000e+00   0.000000000000e+00
  40820     3    1.640625000000    0.234375000000    0.602125000000    0.078125000000   0.000000000000e+00   0.000000000000e+00   0.000000000000e+00
  40790     3    1.953125000000    0.078125000000    0.602125000000    0.078125000000   0.000000000000e+00   0.000000000000e+00   0.000000000000e+00
  40791     3    2.109375000000    0.078125000000    0.602125000000    0.078125000000   0.000000000000e+00   0.000000000000e+00   0.000000000000e+00
  40822     3    1.953125000000    0.234375000000    0.602125000000    0.078125000000   0.000000000000e+00   0.000000000000e+00   0.000000000000e+00
  40823     3    2.109375000000    0.234375000000    0.602125000000    0.078125000000   0.000000000000e+00   0.000000000000e+00   0.000000000000e+00
  40824     3    2.265625000000    0.234375000000    0.602125000000    0.078125000000   0.000000000000e+00   0.000000000000e+00   0.000000000000e+00
  40792     3    2.265625000000    0.078125000000    0.602125000000    0.078125000000   0.000000000000e+00   0.000000000000e+00   0.000000000000e+00
  40825     3    2.421875000000    0.234375000000    0.602125000000    0.078125000000   0.000000000000e+00   0.000000000000e+00   0.000000000000e+00
  40793     3    2.421875000000    0.078125000000    0.602125000000    0.078125000000   0.000000000000e+00   0.000000000000e+00   0.000000000000e+00
  40795     3    2.734375000000    0.078125000000    0.602125000000    0.078125000000   0.000000000000e+00   0.000000000000e+00   0.000000000000e+00
  40827     3    2.734375000000    0.234375000000    0.602125000000    0.078125000000   0.000000000000e+00   0.000000000000e+00   0.000000000000e+00
  40826     3    2.578125000000    0.234375000000    0.602125000000    0.078125000000   0.000000000000e+00   0.000000000000e+00   0.000000000000e+00
  40794     3    2.578125000000    0.078125000000    0.602125000000    0.078125000000   0.000000000000e+00   0.000000000000e+00   0.000000000000e+00
    612     1    3.094573775417    0.194955215469    0.335826190006    0.200000000000  -1.968317045918e-02   1.702438273401e-02   1.160403840832e-01
  40796     3    2.890625000000    0.078125000000    0.602125000000    0.078125000000   0.000000000000e+00   0.000000000000e+00   0.000000000000e+00
  40797     3    3.046875000000    0.078125000000    0.602125000000    0.078125000000   0.000000000000e+00   0.000000000000e+00   0.000000000000e+00
  40828     3    2.890625000000    0.234375000000    0.602125000000    0.078125000000   0.000000000000e+00   0.000000000000e+00   0.000000000000e+00
  40829     3    3.046875000000    0.234375000000    0.602125000000    0.078125000000  -1.345562561951e+02   1.112015685688e+02   7.512178379578e+02
  40799     3    3.359375000000    0.078125000000    0.602125000000    0.078125000000   0.000000000000e+00   0.000000000000e+00   0.000000000000e+00
  40830     3    3.203125000000    0.234375000000    0.602125000000    0.078125000000   0.000000000000e+00   0.000000000000e+00   0.000000000000e+00
  40798     3    3.203125000000    0.078125000000    0.602125000000    0.078125000000   0.000000000000e+00   0.000000000000e+00   0.000000000000e+00
  40831     3    3.359375000000    0.234375000000    0.602125000000    0.078125000000   0.000000000000e+00   0.000000000000e+00   0.000000000000e+00
  40801     3    3.671875000000    0.078125000000    0.602125000000    0.078125000000   0.000000000000e+00   0.000000000000e+00   0.000000000000e+00
  40800     3    3.515625000000    0.078125000000    0.602125000000    0.078125000000   0.000000000000e+00   0.000000000000e+00   0.000000000000e+00
  40832     3    3.515625000000    0.234375000000    0.602125000000    0.078125000000   0.000000000000e+00   0.000000000000e+00   0.000000000000e+00
  40833     3    3.671875000000    0.234375000000    0.602125000000    0.078125000000   0.000000000000e+00   0.000000000000e+00   0.000000000000e+00
  40834     3    3.828125000000    0.234375000000    0.602125000000    0.078125000000   0.000000000000e+00   0.000000000000e+00   0.000000000000e+00
  40835     3    3.984375000000    0.234375000000    0.602125000000    0.078125000000   0.000000000000e+00   0.000000000000e+00   0.000000000000e+00
  40802     3    3.828125000000    0.078125000000    0.602125000000    0.078125000000   0.000000000000e+00   0.000000000000e+00   0.000000000000e+00
  40803     3    3.984375000000    0.078125000000    0.602125000000    0.078125000000   0.000000000000e+00   0.000000000000e+00   0.000000000000e+00
  40836     3    4.140625000000    0.234375000000    0.602125000000    0.078125000000   0.000000000000e+00   0.000000000000e+00   0.000000000000e+00
  40805     3    4.296875000000    0.078125000000    0.602125000000    0.078125000000   0.000000000000e+00   0.000000000000e+00   0.000000000000e+00
  40804     3    4.140625000000    0.078125000000    0.602125000000    0.078125000000   0.000000000000e+00   0.000000000000e+00   0.000000000000e+00
  40837     3    4.296875000000    0.234375000000    0.602125000000    0.078125000000   0.000000000000e+00   0.000000000000e+00   0.000000000000e+00
  40806     3    4.453125000000    0.078125000000    0.602125000000    0.078125000000   0.000000000000e+00   0.000000000000e+00   0.000000000000e+00
  40839     3    4.609375000000    0.234375000000    0.602125000000    0.078125000000   0.000000000000e+00   0.000000000000e+00   0.000000000000e+00
  40838     3    4.453125000000    0.234375000000    0.602125000000    0.078125000000   0.000000000000e+00   0.000000000000e+00   0.000000000000e+00
  40807     3    4.609375000000    0.078125000000    0.602125000000    0.078125000000   0.000000000000e+00   0.000000000000e+00   0.000000000000e+00
    607     1    4.806808301444    0.193976684033    0.332804409878    0.200000000000  -5.101562356940e-03   5.293078190107e-03   3.814601309454e-02
  40808     3    4.765625000000    0.078125000000    0.602125000000    0.078125000000   0.000000000000e+00   0.000000000000e+00   0.000000000000e+00
  40841     3    4.921875000000    0.234375000000    0.602125000000    0.078125000000   0.000000000000e+00   0.000000000000e+00   0.000000000000e+00
  40840     3    4.765625000000    0.234375000000    0.602125000000    0.078125000000  -4.957865470553e+01   4.863364734642e+01   3.242224900472e+02
  40809     3    4.921875000000    0.078125000000    0.602125000000    0.078125000000   0.000000000000e+00   0.000000000000e+00   0.000000000000e+00
    299     1    0.190230181990    0.583687528917    0.334235882659    0.200000000000   1.469126833013e-02  -1.154930438464e-02   8.908972957887e-02
  40843     3    0.234375000000    0.390625000000    0.602125000000    0.078125000000   0.000000000000e+00   0.000000000000e+00   0.000000000000e+00
  40875     3    0.234375000000    0.546875000000    0.602125000000    0.078125000000   1.016646851195e+02  -8.477856127261e+01   6.169435949987e+02
  40874     3    0.078125000000    0.546875000000    0.602125000000    0.078125000000   0.000000000000e+00   0.000000000000e+00   0.000000000000e+00
  40842     3    0.078125000000    0.390625000000    0.602125000000    0.078125000000   0.000000000000e+00   0.000000000000e+00   0.000000000000e+00
  40877     3    0.546875000000    0.546875000000    0.602125000000    0.078125000000   0.000000000000e+00   0.000000000000e+00   0.000000000000e+00
  40844     3    0.390625000000    0.390625000000    0.602125000000    0.078125000000   0.000000000000e+00   0.000000000000e+00   0.000000000000e+00
  40876     3    0.390625000000    0.546875000000    0.602125000000    0.078125000000   0.000000000000e+00   0.000000000000e+00   0.000000000000e+00
  40845     3    0.546875000000    0.390625000000    0.602125000000    0.078125000000   0.000000000000e+00   0.000000000000e+00   0.000000000000e+00
  40879     3    0.859375000000    0.546875000000    0.602125000000    0.078125000000   0.000000000000e+00   0.000000000000e+00   0.000000000000e+00
  40846     3    0.703125000000    0.390625000000    0.602125000000    0.078125000000   0.000000000000e+00   0.000000000000e+00   0.000000000000e+00
  40878     3    0.703125000000    0.546875000000    0.602125000000    0.078125000000   0.000000000000e+00   0.000000000000e+00   0.000000000000e+00
  40847     3    0.859375000000    0.390625000000    0.602125000000    0.078125000000   0.000000000000e+00   0.000000000000e+00   0.000000000000e+00
  40848     3    1.015625000000    0.390625000000    0.602125000000    0.078125000000   0.000000000000e+00   0.000000000000e+00   0.000000000000e+00
  40849     3    1.171875000000    0.390625000000    0.602125000000    0.078125000000   0.000000000000e+00   0.000000000000e+00   0.000000000000e+00
  40880     3    1.015625000000    0.546875000000    0.602125000000    0.078125000000   0.000000000000e+00   0.000000000000e+00   0.000000000000e+00
  40881     3    1.171875000000    0.546875000000    0.602125000000    0.078125000000   0.000000000000e+00   0.000000000000e+00   0.000000000000e+00
  40882     3    1.328125000000    0.546875000000    0.602125000000    0.078125000000   0.000000000000e+00   0.000000000000e+00   0.000000000000e+00
  40850     3    1.328125000000    0.390625000000    0.602125000000    0.078125000000   0.000000000000e+00   0.000000000000e+00   0.000000000000e+00
  40883     3    1.484375000000    0.546875000000    0.602125000000    0.078125000000   0.000000000000e+00   0.000000000000e+00   0.000000000000e+00
  40851     3    1.484375000000    0.390625000000    0.602125000000    0.078125000000   0.000000000000e+00   0.000000000000e+00   0.000000000000e+00
    982     1    1.755335060029    0.539786418091    0.330350755795    0.200000000000   6.998239601103e-03   1.698811914451e-03   5.106270379848e-02
  40853     3    1.796875000000    0.390625000000    0.602125000000    0.078125000000   0.000000000000e+00   0.000000000000e+00   0.000000000000e+00
  40884     3    1.640625000000    0.546875000000    0.602125000000    0.078125000000   0.000000000000e+00   0.000000000000e+00   0.000000000000e+00
  40852     3    1.640625000000    0.390625000000    0.602125000000    0.078125000000   0.000000000000e+00   0.000000000000e+00   0.000000000000e+00
  40885     3    1.796875000000    0.546875000000    0.602125000000    0.078125000000   6.187632955551e+01   1.055888446765e+01   4.048246738624e+02
    327     1    2.150586555456    0.513579874652    0.333332757508    0.200000000000  -1.465144111933e-02   1.114773395580e-02   9.008533151795e-02
  40855     3    2.109375000000    0.390625000000    0.602125000000    0.078125000000   0.000000000000e+00   0.000000000000e+00   0.000000000000e+00
  40886     3    1.953125000000    0.546875000000    0.602125000000    0.078125000000   0.000000000000e+00   0.000000000000e+00   0.000000000000e+00
  40854     3    1.953125000000    0.390625000000    0.602125000000    0.078125000000   0.000000000000e+00   0.000000000000e+00   0.000000000000e+00
  40887     3    2.109375000000    0.546875000000    0.602125000000    0.078125000000  -9.568911092383e+01   7.730795178793e+01   6.241087111181e+02
  40856     3    2.265625000000    0.390625000000    0.602125000000    0.078125000000   0.000000000000e+00   0.000000000000e+00   0.000000000000e+00
  40889     3    2.421875000000    0.546875000000    0.602125000000    0.078125000000   0.000000000000e+00   0.000000000000e+00   0.000000000000e+00
  40888     3    2.265625000000    0.546875000000    0.602125000000    0.078125000000   0.000000000000e+00   0.000000000000e+00   0.000000000000e+00
  40857     3    2.421875000000    0.390625000000    0.602125000000    0.078125000000   0.000000000000e+00   0.000000000000e+00   0.000000000000e+00
    872     1    2.550189007171    0.521444541999    0.328511357946    0.200000000000   6.100352414933e-04   9.325035246093e-04   1.951549635605e-02
  40891     3    2.734375000000    0.546875000000    0.602125000000    0.078125000000   0.000000000000e+00   0.000000000000e+00   0.000000000000e+00
  40858     3    2.578125000000    0.390625000000    0.602125000000    0.078125000000   0.000000000000e+00   0.000000000000e+00   0.000000000000e+00