ITEM: TIMESTEP
3994000
ITEM: NUMBER OF ATOMS
1202
ITEM: BOX BOUNDS ff ff ff
0.0000000000000000e+00 5.0000000000000000e+00
0.0000000000000000e+00 5.0000000000000000e+00
0.0000000000000000e+00 3.0156250000000000e+01
ITEM: ATOMS id type x y z radius fx fy fz
    349     1    0.226755144950    0.219850356725    0.224735646782    0.200000000000   0.000000000000e+00   0.000000000000e+00   0.000000000000e+00
    288     1    1.006265995218    0.232121671098    0.199619422488    0.200000000000  -5.492626719414e-03  -3.112909776072e-03   2.954486307420e-03
    138     1    1.766654286822    0.212893687307    0.199078224011    0.200000000000  -2.539198715203e-03  -6.721116287255e-03  -1.369316383894e-03
    721     1    2.165417943800    0.198784461495    0.198867961571    0.200000000000  -1.866854111727e-03  -8.007100329784e-04   1.553342199543e-03
    501     1    2.929793043493    0.196308924497    0.197285810678    0.200000000000  -5.217723083972e-03   1.850841364841e-03  -3.313689838365e-04
     87     1    3.688056505885    0.245750330809    0.197854361150    0.200000000000  -5.547579164736e-03  -4.956839789512e-03   9.508053393859e-04
    596     1    4.440560220331    0.194072711069    0.195759403355    0.200000000000  -2.364523905153e-03  -5.298803622313e-04   9.309813476079e-04
    700     1    0.563746575526    0.568800814518    0.193915682851    0.200000000000  -2.285169038462e-03   1.922077863589e-03  -1.506136479293e-03
    749     1    1.306414810408    0.565780730258    0.194508290472    0.200000000000  -2.655631202108e-03  -5.836218643352e-04   1.511449551117e-03
    850     1    2.460391555968    0.586313378137    0.196076448366    0.200000000000  -2.611719781591e-04  -3.455011658285e-04  -1.176340661004e-03
     35     1    3.218060819929    0.569040390691    0.197431116689    0.200000000000  -7.798510132851e-04  -4.273271259088e-03   1.322107805379e-03
    933     1    3.963197260784    0.560283501205    0.195700870046    0.200000000000   1.688780269850e-03   4.309145967715e-03   1.097469617775e-03
    576     1    0.739235914993    0.927675004343    0.198806070834    0.200000000000   2.839587489651e-03   1.294474393351e-03   7.728067674151e-05
    696     1    1.493942056858    0.917318750418    0.196968987793    0.200000000000   9.457055479805e-04  -3.187356770793e-03  -1.226436657078e-03
    312     1    2.240331309093    0.919522326608    0.195409211542    0.200000000000   1.133983382091e-04  -1.877874138375e-04   7.801007146213e-04
    723     1    2.989249544349    0.911705099024    0.193511583693    0.200000000000   8.965156334104e-04   2.452348247038e-03   8.587191805418e-04
    335     1    4.485938409272    0.909459649981    0.192266787019    0.200000000000   3.534151619524e-03  -1.393091769594e-03  -1.124532388076e-03
    266     1    0.341795957433    0.962601833822    0.197974410874    0.200000000000   4.087134672257e-03  -8.584352965838e-04  -5.625861557803e-04
    304     1    3.737458282558    0.959445340832    0.194338361734    0.200000000000   3.131705273837e-03   6.543185823833e-04   7.216070006280e-04
    766     1    0.570746934195    1.289839282608    0.195467880279    0.200000000000   1.335649575658e-03   1.227312725893e-03  -1.769194227393e-03
    606     1    1.322050351059    1.277063829180    0.196469055501    0.200000000000   1.037830556072e-03  -2.834806197411e-03   2.416514381878e-04
    993     1    2.079084066992    1.285198370452    0.198004727867    0.200000000000  -6.287592257897e-04  -8.310536581005e-04  -1.876626556722e-03
    166     1    2.476880083863    1.289347312110    0.197172626155    0.200000000000  -7.505468011549e-04   6.924336707851e-03   1.673376018800e-04
    888     1    3.231752618234    1.291443506626    0.196567457716    0.200000000000  -8.179083078469e-04  -8.979496959492e-04   8.159381608266e-04
    275     1    3.988685292850    1.269552370569    0.198147629117    0.200000000000   4.712843611030e-04   4.330402859227e-03   2.655564718168e-04
    763     1    4.424253776554    1.295908539039    0.281763292669    0.200000000000   0.000000000000e+00   0.000000000000e+00   0.000000000000e+00
    747     1    4.806552186756    1.468789979105    0.194245344071    0.200000000000   1.010966257691e-03   1.593000501401e-03  -5.259002097091e-04
    820     1    0.345944999239    1.662691316672    0.197419672987    0.200000000000  -1.594268855642e-03  -1.207568104878e-03  -1.031588808786e-03
    227     1    1.110334004404    1.660164153527    0.197375531559    0.200000000000  -9.310402824584e-05  -2.327072739115e-03   1.895477323018e-03
    635     1    1.507127687554    1.629947526549    0.196634830844    0.200000000000   3.869681608400e-04  -1.693557568668e-03   9.870772325087e-04
    337     1    2.657958270039    1.663547228005    0.196762851401    0.200000000000   2.558569916826e-03   2.505701897545e-03  -1.586370253420e-03
    117     1    3.416342271709    1.645183986504    0.196519409000    0.200000000000   4.144641657717e-04  -1.629438192226e-03  -1.019102171853e-03
    430     1    4.170818048263    1.623606021529    0.195357937901    0.200000000000   1.137538126386e-03   4.732351600882e-03   1.476914219438e-04
    573     1    0.567017440091    1.998854973236    0.194502180495    0.200000000000   6.272774171037e-04  -9.868968618775e-04   8.671070998503e-04
    948     1    1.716341425277    1.999295226036    0.197142708754    0.200000000000  -1.148878160112e-04  -1.135826799782e-03  -1.673344601727e-03
    392     1    2.111874435164    1.961354725177    0.196944654437    0.200000000000  -7.072261342448e-05   4.336947709618e-03  -5.919686907419e-04
    159     1    3.263494719176    2.013488494641    0.197156256319    0.200000000000   6.206668392237e-04  -1.640751471182e-03  -9.006605359048e-04
    389     1    4.019145839151    1.993413348759    0.199471378112    0.200000000000  -2.525950953629e-03   2.922768883373e-03  -5.549657187659e-03
    361     1    4.411588758306    2.067664515329    0.194062557567    0.200000000000  -1.917707472271e-03  -3.370126673403e-04  -1.244446663122e-04
    272     1    4.803630638246    1.972404870620    0.197317455027    0.200000000000  -1.069085864156e-03   6.321940163446e-03   4.364629106703e-04
    703     1    0.366232208896    2.344238993829    0.196855992230    0.200000000000  -1.647199356052e-04  -1.590794268624e-04  -3.199149603006e-06
    504     1    1.124481190735    2.330050974720    0.199535090847    0.200000000000   1.701596421846e-03   8.790911241589e-04   1.472175867297e-03
    108     1    2.287872515746    2.325089185691    0.198588190748    0.200000000000   1.921969792113e-03   4.454953196894e-04   6.207750722638e-04
    890     1    2.686473865719    2.322389413094    0.197623662057    0.200000000000   2.061736936989e-03  -1.422984641439e-03  -1.286986591253e-04
    922     1    3.442780454800    2.369587309158    0.197806831694    0.200000000000   1.294693336535e-03  -1.555302151879e-03   9.474349165828e-05
    785     1    3.840871548665    2.362046864375    0.197287027653    0.200000000000   1.356514918315e-03  -2.613942416696e-03   6.123697582439e-05
    202     1    0.576757357558    2.682954320619    0.197437512672    0.200000000000  -1.482291318715e-03   7.615959624609e-04  -9.070904621922e-05
    655     1    1.334879409464    2.669658230233    0.197607694621    0.200000000000   5.650464329360e-04   1.245282305852e-03  -2.893506189992e-04
    564     1    2.092005124826    2.673352010474    0.199597805079    0.200000000000   1.603443559356e-03  -3.037356776970e-04   1.701327927917e-03
    819     1    2.861535442827    2.679918392703    0.217429273657    0.200000000000   9.270206036156e-04  -7.390439544039e-04   9.283278173454e-03
    931     1    4.028110021520    2.714278924219    0.196419217537    0.200000000000   8.448594254997e-04  -5.905532435942e-04  -8.283343674123e-04
    420     1    4.426136126460    2.702053415555    0.197035448062    0.200000000000   1.003259987144e-03  -2.186099401419e-04   8.508341699098e-05
    568     1    0.367965919363    3.022996398825    0.197582772091    0.200000000000  -2.411352818885e-03   1.412307516202e-03   8.445467299794e-04
    889     1    1.132215223020    3.021060925396    0.199533324510    0.200000000000   1.206928538922e-03   6.894139503831e-03   3.702129917572e-03
    436     1    1.531655575010    3.016640587244    0.198915582372    0.200000000000  -3.917592094001e-04   1.438771099092e-03  -1.861408392401e-04
    164     1    2.295664893884    3.017111740534    0.198228637230    0.200000000000  -6.984139176953e-04   3.534837490353e-04   6.494742810901e-04
    297     1    3.056818248429    3.027007569318    0.197221041148    0.200000000000   3.474411618746e-04  -3.086875049975e-04  -2.068196567961e-05
     63     1    3.455023483756    3.022618290417    0.198386812664    0.200000000000   4.001636901859e-04  -4.647995213409e-03   1.446343029102e-03
    915     1    4.631417105789    3.043206781708    0.196850329032    0.200000000000  -7.784194548432e-05   5.594409190827e-04   4.760718081798e-05
    570     1    0.577168167065    3.363042121333    0.197563762737    0.200000000000  -2.729749427485e-03   2.236357240143e-03   5.150943570698e-05
    771     1    1.738664849831    3.358061675620    0.197600385804    0.200000000000  -2.134072639747e-03   1.036579514585e-03   1.146603790346e-03
    808     1    2.502433849499    3.359030250539    0.197216973276    0.200000000000  -1.059996285270e-03  -6.095453853086e-04   9.219007236538e-04
    689     1    3.661992298969    3.383300417707    0.197727752110    0.200000000000   7.028133083016e-04   6.331542698952e-04   7.959175506898e-04
    646     1    4.422889588643    3.381919153282    0.197323843013    0.200000000000   1.892355762278e-03   1.316742012678e-03   1.401798873758e-03
    109     1    0.368310816919    3.703315725664    0.197915930726    0.200000000000  -2.981536689730e-03   3.124192846447e-03   3.253643963319e-05
    220     1    1.132150216376    3.701282316070    0.198584091686    0.200000000000  -2.063264458708e-03   2.187341627172e-04  -7.058942557308e-04
    374     1    1.531451777276    3.698842223294    0.198880587593    0.200000000000  -2.379714463249e-03   1.435263624479e-03   3.287975413500e-04
    577     1    2.295742957552    3.700818925686    0.198156782872    0.200000000000   7.725307844719e-04  -8.386385881982e-04   2.401995088519e-04
    806     1    3.056488459467    3.708158415151    0.198089779060    0.200000000000  -1.788242216750e-04   1.388851046832e-03  -1.535149363008e-03
    567     1    3.454115147058    3.723728044057    0.198654736508    0.200000000000   4.864782131095e-04   6.009562566791e-04   2.853728650543e-03
    463     1    4.215539080076    3.722469793690    0.197093799246    0.200000000000   2.954930473849e-03   7.182876142631e-04   9.797242674381e-05
     22     1    0.577394804478    4.042811865990    0.197222205283    0.200000000000  -1.680747923471e-03   2.367921875819e-03  -6.607525085656e-04
    908     1    1.334088839604    4.045096924539    0.197143956963    0.200000000000  -4.637183457640e-03   9.349952463435e-04  -2.780213193688e-03
     52     1    2.088893584739    4.041936825393    0.197763905545    0.200000000000  -1.545530824247e-03  -1.147217603276e-03   2.063063772965e-03
    868     1    2.848092359622    4.047776122709    0.198111791780    0.200000000000   6.117624248995e-04   2.570093729151e-03  -4.086285421465e-04
    569     1    4.425952973208    4.060816033907    0.196515315614    0.200000000000   2.161179934387e-03   1.547287444715e-03   2.901102268993e-05
    600     1    3.664541142458    4.062567495996    0.196779829070    0.200000000000   1.894289157368e-03  -3.624182873590e-04  -8.545424597912e-04
    597     1    0.193307070655    4.422477507323    0.196145786373    0.200000000000  -3.055774229524e-04   3.897574103676e-03  -2.036693359571e-03
    744     1    0.949685711062    4.423099990628    0.194641493971    0.200000000000  -1.168896594536e-03   8.584899575115e-04  -4.204917681818e-04
     53     1    1.706627135766    4.423711786442    0.195082234952    0.200000000000  -9.352631087824e-04  -3.992839342300e-03   1.612541832401e-04
    857     1    2.463648860322    4.427184277813    0.195039636577    0.200000000000  -1.420938922242e-03   2.800725743649e-03  -1.285445114320e-03
     46     1    3.219812809015    4.421671061618    0.196094329746    0.200000000000  -5.028898771280e-04   1.556648072862e-04   2.519915434505e-03
    540     1    3.974322294344    4.429850479956    0.196708988054    0.200000000000   9.671768240486e-04  -5.749604766527e-04  -2.060045267740e-04
    192     1    4.734214947284    4.430941545727    0.196668522033    0.200000000000  -1.408024527472e-03   3.102245279231e-03  -6.264763570130e-04
      9     1    0.614298643067    4.802580041069    0.198630459738    0.200000000000   1.724899500802e-03   8.873614588141e-04   4.919466094009e-04
    699     1    1.380503359460    4.803365933401    0.198048142990    0.200000000000  -5.853599777726e-04  -2.122495963048e-04  -1.227077025348e-03
    799     1    2.145143766717    4.801258099376    0.198626242468    0.200000000000  -2.554527879592e-03   1.548849635070e-03  -1.125887052609e-03
    709     1    2.907710695641    4.802664083581    0.197947176497    0.200000000000  -3.548621268790e-03   2.148727144152e-03   2.191416436119e-04
     95     1    3.666640160410    4.804445590252    0.196973872586    0.200000000000  -3.281209177816e-03  -1.932613957158e-04   1.225753349615e-03
    429     1    4.424872274720    4.804503485817    0.196206838844    0.200000000000  -1.806911039076e-03   1.200634936431e-03   1.534264582915e-03
  40811     3    0.234375000000    0.234375000000    0.586125000001    0.078125000000   0.000000000000e+00   0.000000000000e+00   0.000000000000e+00
  40779     3    0.234375000000    0.078125000000    0.586125000001    0.078125000000   0.000000000000e+00   0.000000000000e+00   0.000000000000e+00
  40778     3    0.078125000000    0.078125000000    0.586125000001    0.078125000000   0.000000000000e+00   0.000000000000e+00   0.000000000000e+00
  40810     3    0.078125000000    0.234375000000    0.586125000001    0.078125000000   0.000000000000e+00   0.000000000000e+00   0.000000000000e+00
  40780     3    0.390625000000    0.078125000000    0.586125000001    0.078125000000   0.000000000000e+00   0.000000000000e+00   0.000000000000e+00
  40781     3    0.546875000000    0.078125000000    0.586125000001    0.078125000000   0.000000000000e+00   0.000000000000e+00   0.000000000000e+00
  40812     3    0.390625000000    0.234375000000    0.586125000001    0.078125000000   0.000000000000e+00   0.000000000000e+00   0.000000000000e+00
  40813     3    0.546875000000    0.234375000000    0.586125000001    0.078125000000   0.000000000000e+00   0.000000000000e+00   0.000000000000e+00
    722     1    0.627386806592    0.196972675721    0.322144478667    0.200000000000  -3.622061678984e-03  -2.400540991914e-03  -8.729283637379e-03
  40783     3    0.859375000000    0.078125000000    0.586125000001    0.078125000000   0.000000000000e+00   0.000000000000e+00   0.000000000000e+00
  40814     3    0.703125000000    0.234375000000    0.586125000001    0.078125000000   1.923740201895e+01   9.500140455715e+00   6.705070069630e+01
  40815     3    0.859375000000    0.234375000000    0.586125000001    0.078125000000   0.000000000000e+00   0.000000000000e+00   0.000000000000e+00
  40782     3    0.703125000000    0.078125000000    0.586125000001    0.078125000000   0.000000000000e+00   0.000000000000e+00   0.000000000000e+00
  40816     3    1.015625000000    0.234375000000    0.586125000001    0.078125000000   0.000000000000e+00   0.000000000000e+00   0.000000000000e+00
  40785     3    1.171875000000    0.078125000000    0.586125000001    0.078125000000   0.000000000000e+00   0.000000000000e+00   0.000000000000e+00
  40784     3    1.015625000000    0.078125000000    0.586125000001    0.078125000000   0.000000000000e+00   0.000000000000e+00   0.000000000000e+00
  40817     3    1.171875000000    0.234375000000    0.586125000001    0.078125000000   0.000000000000e+00   0.000000000000e+00   0.000000000000e+00
    163     1    1.386268507656    0.196062987975    0.318323117328    0.200000000000  -6.699810193337e-03  -6.464534469615e-04   6.596805948545e-03
  40819     3    1.484375000000    0.234375000000    0.586125000001    0.078125000000   0.000000000000e+00   0.000000000000e+00   0.000000000000e+00
  40818     3    1.328125000000    0.234375000000    0.586125000001    0.078125000000  -2.661418801837e+01   1.753666472999e+01   1.225817055684e+02
  40786     3    1.328125000000    0.078125000000    0.586125000001    0.078125000000   0.000000000000e+00   0.000000000000e+00   0.000000000000e+00
  40787     3    1.484375000000    0.078125000000    0.586125000001    0.078125000000   0.000000000000e+00   0.000000000000e+00   0.000000000000e+00
  40821     3    1.796875000000    0.234375000000    0.586125000001    0.078125000000   0.000000000000e+00   0.000000000000e+00   0.000000000000e+00
  40788     3    1.640625000000    0.078125000000    0.586125000001    0.078125000000   0.000000000000e+00   0.000000000000e+00   0.000000000000e+00
  40789     3    1.796875000000    0.078125000000    0.586125000001    0.078125000000   0.000000000000e+00   0.000000000000e+00   0.000000000000e+00
  40820     3    1.640625000000    0.234375000000    0.586125000001    0.078125000000   0.000000000000e+00   0.000000000000e+00   0.000000000000e+00
  40823     3    2.109375000000    0.234375000000    0.586125000001    0.078125000000   0.000000000000e+00   0.000000000000e+00   0.000000000000e+00
  40790     3    1.953125000000    0.078125000000    0.586125000001    0.078125000000   0.000000000000e+00   0.000000000000e+00   0.000000000000e+00
  40822     3    1.953125000000    0.234375000000    0.586125000001    0.078125000000   0.000000000000e+00   0.000000000000e+00   0.000000000000e+00
  40791     3    2.109375000000    0.078125000000    0.586125000001    0.078125000000   0.000000000000e+00   0.000000000000e+00   0.000000000000e+00
  40824     3    2.265625000000    0.234375000000    0.586125000001    0.078125000000   0.000000000000e+00   0.000000000000e+00   0.000000000000e+00
  40825     3    2.421875000000    0.234375000000    0.586125000001    0.078125000000   0.000000000000e+00   0.000000000000e+00   0.000000000000e+00
  40792     3    2.265625000000    0.078125000000    0.586125000001    0.078125000000   0.000000000000e+00   0.000000000000e+00   0.000000000000e+00
  40793     3    2.421875000000    0.078125000000    0.586125000001    0.078125000000   0.000000000000e+00   0.000000000000e+00   0.000000000000e+00
    404     1    2.547871017080    0.213534098156    0.311341585526    0.200000000000  -2.780701044493e-03   1.952413926917e-03   8.184013577278e-03
  40794     3    2.578125000000    0.078125000000    0.586125000001    0.078125000000   0.000000000000e+00   0.000000000000e+00   0.000000000000e+00
  40795     3    2.734375000000    0.078125000000    0.586125000001    0.078125000000   0.000000000000e+00   0.000000000000e+00   0.000000000000e+00
  40827     3    2.734375000000    0.234375000000    0.586125000001    0.078125000000   0.000000000000e+00   0.000000000000e+00   0.000000000000e+00
  40826     3    2.578125000000    0.234375000000    0.586125000001    0.078125000000   6.944204913712e+00   4.783617704826e+00   6.307110087908e+01
  40828     3    2.890625000000    0.234375000000    0.586125000001    0.078125000000   0.000000000000e+00   0.000000000000e+00   0.000000000000e+00
  40796     3    2.890625000000    0.078125000000    0.586125000001    0.078125000000   0.000000000000e+00   0.000000000000e+00   0.000000000000e+00
  40797     3    3.046875000000    0.078125000000    0.586125000001    0.078125000000   0.000000000000e+00   0.000000000000e+00   0.000000000000e+00
  40829     3    3.046875000000    0.234375000000    0.586125000001    0.078125000000   0.000000000000e+00   0.000000000000e+00   0.000000000000e+00
    856     1    3.310251090697    0.198720385649    0.316013619275    0.200000000000  -4.267844825757e-03  -1.632537418992e-03   1.059571727363e-02
  40830     3    3.203125000000    0.234375000000    0.586125000001    0.078125000000   0.000000000000e+00   0.000000000000e+00   0.000000000000e+00
  40831     3    3.359375000000    0.234375000000    0.586125000001    0.078125000000   1.920089270310e+01   1.393619514222e+01   1.055774961336e+02
  40798     3    3.203125000000    0.078125000000    0.586125000001    0.078125000000   0.000000000000e+00   0.000000000000e+00   0.000000000000e+00
  40799     3    3.359375000000    0.078125000000    0.586125000001    0.078125000000   0.000000000000e+00   0.000000000000e+00   0.000000000000e+00
  40832     3    3.515625000000    0.234375000000    0.586125000001    0.078125000000   0.000000000000e+00   0.000000000000e+00   0.000000000000e+00
  40801     3    3.671875000000    0.078125000000    0.586125000001    0.078125000000   0.000000000000e+00   0.000000000000e+00   0.000000000000e+00
  40800     3    3.515625000000    0.078125000000    0.586125000001    0.078125000000   0.000000000000e+00   0.000000000000e+00   0.000000000000e+00
  40833     3    3.671875000000    0.234375000000    0.586125000001    0.078125000000   0.000000000000e+00   0.000000000000e+00   0.000000000000e+00
  40834     3    3.828125000000    0.234375000000    0.586125000001    0.078125000000   0.000000000000e+00   0.000000000000e+00   0.000000000000e+00
  40803     3    3.984375000000    0.078125000000    0.586125000001    0.078125000000   0.000000000000e+00   0.000000000000e+00   0.000000000000e+00
  40802     3    3.828125000000    0.078125000000    0.586125000001    0.078125000000   0.000000000000e+00   0.000000000000e+00   0.000000000000e+00
  40835     3    3.984375000000    0.234375000000    0.586125000001    0.078125000000  -2.229165777658e+01   1.073823043922e+01   7.438373930912e+01
    863     1    4.063170887302    0.196417823266    0.323195582157    0.200000000000  -2.219449305152e-03   3.524537706625e-03   1.472282211773e-02
  40837     3    4.296875000000    0.234375000000    0.586125000001    0.078125000000   0.000000000000e+00   0.000000000000e+00   0.000000000000e+00
  40836     3    4.140625000000    0.234375000000    0.586125000001    0.078125000000   3.508428117433e+01   1.719340875723e+01   1.190987689981e+02
  40805     3    4.296875000000    0.078125000000    0.586125000001    0.078125000000   0.000000000000e+00   0.000000000000e+00   0.000000000000e+00
  40804     3    4.140625000000    0.078125000000    0.586125000001    0.078125000000   0.000000000000e+00   0.000000000000e+00   0.000000000000e+00
  40806     3    4.453125000000    0.078125000000    0.586125000001    0.078125000000   0.000000000000e+00   0.000000000000e+00   0.000000000000e+00
  40839     3    4.609375000000    0.234375000000    0.586125000001    0.078125000000   0.000000000000e+00   0.000000000000e+00   0.000000000000e+00
  40838     3    4.453125000000    0.234375000000    0.586125000001    0.078125000000   0.000000000000e+00   0.000000000000e+00   0.000000000000e+00
  40807     3    4.609375000000    0.078125000000    0.586125000001    0.078125000000   0.000000000000e+00   0.000000000000e+00   0.000000000000e+00
    883     1    4.804389639553    0.296719581229    0.319248209502    0.200000000000  -3.114275897190e-03  -3.835693781657e-04   8.727518479624e-03
  40841     3    4.921875000000    0.234375000000    0.586125000001    0.078125000000   0.000000000000e+00   0.000000000000e+00   0.000000000000e+00
  40840     3    4.765625000000    0.234375000000    0.586125000001    0.078125000000  -1.618853141021e+01  -2.603576917757e+01   1.114506262431e+02
  40809     3    4.921875000000    0.078125000000    0.586125000001    0.078125000000   0.000000000000e+00   0.000000000000e+00   0.000000000000e+00
  40808     3    4.765625000000    0.078125000000    0.586125000001    0.078125000000   0.000000000000e+00   0.000000000000e+00   0.000000000000e+00
    701     1    0.191970103539    0.615066444607    0.322604476228    0.200000000000   4.709034810276e-03  -6.888228100566e-03   3.644501144555e-02
  40875     3    0.234375000000    0.546875000000    0.586125000001    0.078125000000   4.951832899278e+01  -7.963057896884e+01   3.077261602667e+02
  40874     3    0.078125000000    0.546875000000    0.586125000001    0.078125000000   0.000000000000e+00   0.000000000000e+00   0.000000000000e+00
  40843     3    0.234375000000    0.390625000000    0.586125000001    0.078125000000   0.000000000000e+00   0.000000000000e+00   0.000000000000e+00
  40842     3    0.078125000000    0.390625000000    0.586125000001    0.078125000000   0.000000000000e+00   0.000000000000e+00   0.000000000000e+00
  40877     3    0.546875000000    0.546875000000    0.586125000001    0.078125000000   0.000000000000e+00   0.000000000000e+00   0.000000000000e+00
  40876     3    0.390625000000    0.546875000000    0.586125000001    0.078125000000   0.000000000000e+00   0.000000000000e+00   0.000000000000e+00
  40845     3    0.546875000000    0.390625000000    0.586125000001    0.078125000000   0.000000000000e+00   0.000000000000e+00   0.000000000000e+00
  40844     3    0.390625000000    0.390625000000    0.586125000001    0.078125000000   0.000000000000e+00   0.000000000000e+00   0.000000000000e+00
  40879     3    0.859375000000    0.546875000000    0.586125000001    0.078125000000  -1.026703349633e+02  -7.774346958859e+01   3.504385626452e+02
  40878     3    0.703125000000    0.546875000000    0.586125000001    0.078125000000   0.000000000000e+00   0.000000000000e+00   0.000000000000e+00
  40847     3    0.859375000000    0.390625000000    0.586125000001    0.078125000000   0.000000000000e+00   0.000000000000e+00   0.000000000000e+00
  40846     3    0.703125000000    0.390625000000    0.586125000001    0.078125000000   0.000000000000e+00   0.000000000000e+00   0.000000000000e+00
      3     1    0.935055953664    0.604181718043    0.327807691476    0.200000000000  -1.181338281049e-02  -1.283556633351e-02   5.428772780347e-02
  40881     3    1.171875000000    0.546875000000    0.586125000001    0.078125000000   0.000000000000e+00   0.000000000000e+00   0.000000000000e+00
  40880     3    1.015625000000    0.546875000000    0.586125000001    0.078125000000   4.142805652215e+01  -2.946672500188e+01   1.328250058015e+02
  40849     3    1.171875000000    0.390625000000    0.586125000001    0.078125000000   0.000000000000e+00   0.000000000000e+00   0.000000000000e+00
  40848     3    1.015625000000    0.390625000000    0.586125000001    0.078125000000   0.000000000000e+00   0.000000000000e+00   0.000000000000e+00
  40883     3    1.484375000000    0.546875000000    0.586125000001    0.078125000000   0.000000000000e+00   0.000000000000e+00   0.000000000000e+00
  40882     3    1.328125000000    0.546875000000    0.586125000001    0.078125000000   0.000000000000e+00   0.000000000000e+00   0.000000000000e+00
  40851     3    1.484375000000    0.390625000000    0.586125000001    0.078125000000   0.000000000000e+00   0.000000000000e+00   0.000000000000e+00
  40850     3    1.328125000000    0.390625000000    0.586125000001    0.078125000000   0.000000000000e+00   0.000000000000e+00   0.000000000000e+00
    423     1    1.683875642881    0.586174610046    0.315941784725    0.200000000000  -2.873311050031e-03  -7.036279892020e-03   1.287830110141e-02
  40853     3    1.796875000000    0.390625000000    0.586125000001    0.078125000000   0.000000000000e+00   0.000000000000e+00   0.000000000000e+00
  40852     3    1.640625000000    0.390625000000    0.586125000001    0.078125000000   0.000000000000e+00   0.000000000000e+00   0.000000000000e+00
  40885     3    1.796875000000    0.546875000000    0.586125000001    0.078125000000   0.000000000000e+00   0.000000000000e+00   0.000000000000e+00
  40884     3    1.640625000000    0.546875000000    0.586125000001    0.078125000000  -2.585598569572e+01  -2.349398941372e+01   1.615202190173e+02
    901     1    2.080787695650    0.572299314584    0.312261171017    0.200000000000   1.499006178069e-03  -1.400368342665e-03   1.379989216750e-02
  40887     3    2.109375000000    0.546875000000    0.586125000001    0.078125000000   1.570885821685e+01  -1.397078109408e+01   1.504894633363e+02
  40886     3    1.953125000000    0.546875000000    0.586125000001    0.078125000000   0.000000000000e+00   0.000000000000e+00   0.000000000000e+00
  40855     3    2.109375000000    0.390625000000    0.586125000001    0.078125000000   0.000000000000e+00   0.000000000000e+00   0.000000000000e+00
  40854     3    1.953125000000    0.390625000000    0.586125000001    0.078125000000   0.000000000000e+00   0.000000000000e+00   0.000000000000e+00
  40889     3    2.421875000000    0.546875000000    0.586125000001    0.078125000000   0.000000000000e+00   0.000000000000e+00   0.000000000000e+00
  40888     3    2.265625000000    0.546875000000    0.586125000001    0.078125000000   0.000000000000e+00   0.000000000000e+00   0.000000000000e+00
  40857     3    2.421875000000    0.390625000000    0.586125000001    0.078125000000   0.000000000000e+00   0.000000000000e+00   0.000000000000e+00
  40856     3    2.265625000000    0.390625000000    0.586125000001    0.078125000000   0.000000000000e+00   0.000000000000e+00   0.000000000000e+00
  40891     3    2.734375000000    0.546875000000    0.586125000001    0.078125000000   0.000000000000e+00   0.000000000000e+00   0.000000000000e+00
  40890     3    2.578125000000    0.546875000000    0.586125000001    0.078125000000   0.000000000000e+00   0.000000000000e+00   0.000000000000e+00
  40859     3    2.734375000000    0.390625000000    0.586125000001    0.078125000000   0.000000000000e+00   0.000000000000e+00   0.000000000000e+00