LAMMPS data file

  8041  atoms

   3 atom types

  0.0000000000000000000  50.0000000000000000000 xlo xhi
  0.0000000000000000000  50.0000000000000000000 ylo yhi
  0.0000000000000000000 100.8333333333333285964 zlo zhi

Atoms # sphere

    1    1  5.94828  4.85000   36.516011907099610   24.208104023802008   60.180081802523326
    2    1  5.84483  4.85000   43.055469630251665   27.366218274831482   55.092320960162439
    3    1  5.84483  4.85000    6.446227568575329   24.457768497484341   58.942031297272322
    4    1  5.74138  4.85000    6.575897331864254    5.752041360364360   83.176909374189776
    5    1  5.74138  4.85000   32.320288345601526    8.302598911101780    2.998798260554452
    6    1  5.74138  4.85000   38.127455870412597   29.314617669329085   50.329484177126481
    7    1  5.63793  4.85000    5.393593384165847    7.785818345682767   52.915673570342527
    8    1  5.63793  4.85000   21.419472235354799   44.455966188371924   17.371846375576585
    9    1  5.63793  4.85000   11.943803292115117   18.313967857584814   35.757470708126739
   10    1  5.63793  4.85000   33.185643937395845   15.635006309390880   12.839222122001962
   11    1  5.53448  4.85000   26.715774984743497   11.481388180558440   83.292980234269137
   12    1  5.53448  4.85000   36.820032617938509    8.360593556583860   96.833268702957341
   13    1  5.53448  4.85000   38.782006387345703   37.029008477668960   28.104229062349887
   14    1  5.53448  4.85000   31.012082768137990   35.261772872253431   25.020150175705322
   15    1  5.53448  4.85000   14.341879008467799    3.975440905574357   71.640200168239062
   16    1  5.53448  4.85000   15.418842568904715   32.247518902872052   46.744388315756247
   17    1  5.43103  4.85000   31.454684389250748   37.964916994320113   33.762181690956652
   18    1  5.43103  4.85000   34.054968000092018   13.357860720313600   27.311753268621104
   19    1  5.43103  4.85000   16.487613327078162   29.794339853646026   38.944804893677436
   20    1  5.43103  4.85000   23.227540979589573   34.329028417195644   16.611487948930744
   21    1  5.43103  4.85000    8.630602683509219   44.094340620207376   70.196852517878412
   22    1  5.43103  4.85000   38.570523524369328   24.923627011522210   33.216918271294809
   23    1  5.43103  4.85000   31.718996551865583   40.658432127703890   63.416791347842512
   24    1  5.43103  4.85000   39.144348045514363    5.811317803979301    3.165969014085177
   25    1  5.32759  4.85000   24.573767602734385   12.668323004513370    7.006907457286195
   26    1  5.32759  4.85000   13.138914300146158   45.191940613110290   33.930002707414317
   27    1  5.32759  4.85000   33.155870578713127   19.661807026507280    5.551503420154912
   28    1  5.32759  4.85000   44.519745814866390   40.663975918467791   21.379112774240372
   29    1  5.32759  4.85000   41.672245319118218   46.632575272426990   48.391318037924371
   30    1  5.32759  4.85000   15.022134932325232   23.951433479906527   70.383303502445983
   31    1  5.32759  4.85000   28.148789652518513   23.071533043390705    9.168718039461703
   32    1  5.32759  4.85000   20.783238789739890   21.606897662423211   36.483433038188593
   33    1  5.32759  4.85000   41.307940450258776   29.769383111284760   84.999841419801598
   34    1  5.32759  4.85000   33.630830667374283   23.719827645464058   49.547529479775285
   35    1  5.32759  4.85000   30.749959018254660   40.670728609131324   45.819687857071827
   36    1  5.22414  4.85000    5.709144281039551   13.700702466986565   65.454423013000408
   37    1  5.22414  4.85000   27.766594116690502   37.743726547643696   15.610589594572911
   38    1  5.22414  4.85000   38.136184066141695   17.438958054278238   32.548054840834190
   39    1  5.22414  4.85000    6.186100749825370   26.885150479305000   47.056198704751559
   40    1  5.22414  4.85000   23.873639101141563   42.841560308278709   52.388571833071950
   41    1  5.22414  4.85000   35.033971909906825    5.485775715393141   16.798905000334422
   42    1  5.22414  4.85000   41.948101189320248   36.261522869348191   94.620038676508784
   43    1  5.22414  4.85000   30.108277890769926   46.074494526918627   57.788507339789462
   44    1  5.22414  4.85000   17.591148565119816   45.351353192940664   57.158540315368633
   45    1  5.22414  4.85000    8.883817635000112    8.144364880258230    9.466525793025951
   46    1  5.22414  4.85000   42.418395937236674   12.952096728382056   93.053065921372621
   47    1  5.22414  4.85000   15.808603501742912   33.136963552441465   22.434132012567012
   48    1  5.22414  4.85000   23.334872143494156   13.215594653005889   33.880039726038540
   49    1  5.22414  4.85000    3.723062589763732   12.883040836945613   96.999995377602815
   50    1  5.22414  4.85000   40.605969016565901   40.174842578621153   82.549211448948512
   51    1  5.12069  4.85000    4.436306457564512   22.608175454579307   41.270760095268251
   52    1  5.12069  4.85000   26.257569214090029   42.900978080350022   69.094462060044066
   53    1  5.12069  4.85000    4.192310901329137   39.714042624065222   11.801147764177434
   54    1  5.12069  4.85000   14.683932710474593   21.914505606388211   22.636393348045107
   55    1  5.12069  4.85000   32.638763991771093   10.514853978168428   17.373952881545833
   56    1  5.12069  4.85000   47.250706676286192   35.560562094562378   65.671999345041229
   57    1  5.12069  4.85000    3.818166166249742    4.628683730741409   29.122817446172103
   58    1  5.12069  4.85000   37.267673047397047   37.533567918731826   44.455727255949363
   59    1  5.12069  4.85000   36.648927152152041    3.543201406133129   49.755602460408454
   60    1  5.12069  4.85000   20.516425513124350   45.962150461176606   71.035730431422920
   61    1  5.12069  4.85000   18.414889467506878   37.797546486066103   49.720311888115020
   62    1  5.12069  4.85000   25.852227986200830    2.829958342468529   63.501600938643129
   63    1  5.12069  4.85000    5.054958410953605   42.975834417378849   21.544543242489745
   64    1  5.12069  4.85000   15.506613042495360   13.546316515276429   83.509817192855181
   65    1  5.12069  4.85000   10.599563014914539   29.418019176117500   66.333024492151026
   66    1  5.12069  4.85000   31.577440619535494   38.108487824459715   79.585610802356385
   67    1  5.12069  4.85000   16.774555338030122   15.050949922376640    8.681174452601043
   68    1  5.12069  4.85000    5.113803481698680   42.430575468361404   62.674302538534157
   69    1  5.12069  4.85000    6.009812712047570   17.622321985053485   92.989700767458658
   70    1  5.12069  4.85000   10.262284037862694   43.623751623733249   56.620376444061080
   71    1  5.01724  4.85000   31.637126871130512   14.189351286041243   39.139113707393008
   72    1  5.01724  4.85000   24.640853155184722   34.949662454377481   22.437839020096035
   73    1  5.01724  4.85000   15.848879281727195   37.600516505382515   11.027754211941001
   74    1  5.01724  4.85000   19.567025256157301   20.560017174547767   10.954708103845208
   75    1  5.01724  4.85000    4.195732684194763   11.674861140872117   60.634158489650119
   76    1  5.01724  4.85000   37.098987390823524    4.807186865537108   36.550361251264448
   77    1  5.01724  4.85000    5.587700189029952   44.168689729708746   90.252141526712876
   78    1  5.01724  4.85000   43.290984119974070   27.293540586812362   25.701914722945183
   79    1  5.01724  4.85000   43.291427251254220   21.613556545841206   76.041777295765513
   80    1  5.01724  4.85000    7.602519519484127   43.379260850048240    3.307281103470940
   81    1  5.01724  4.85000   43.581955850403965   22.122593583580553   35.928994161258814
   82    1  5.01724  4.85000    5.514379348912760   29.362436955827484   89.392827234732081
   83    1  5.01724  4.85000   26.172419864679696   34.449590139625869    2.645652333591038
   84    1  5.01724  4.85000   31.700150733090474   45.777023657669773   44.331773563306896
   85    1  5.01724  4.85000   37.516673222240200   29.411735652255466   57.395886140934543
   86    1  5.01724  4.85000   23.792543475283146   23.645768401448123   32.719186727023846
   87    1  5.01724  4.85000   17.865678026823016   35.227559568060073   55.287605432051706
   88    1  5.01724  4.85000   25.910849734852000   45.919243299579492   89.007356764452069
   89    1  5.01724  4.85000   20.477677583463866   40.393030180280043   57.654269469567623
   90    1  5.01724  4.85000   23.662470700029168   24.356150200518073   52.759433212827737
   91    1  5.01724  4.85000   25.239635069558879    7.203528990623911   50.842869132128023
   92    1  5.01724  4.85000   31.019323268031997   25.245476729848384   70.756992782243273
   93    1  5.01724  4.85000   12.645864642151878   42.139554729989769   43.731981029341220
   94    1  5.01724  4.85000   24.895323923425494    9.540784732851026   46.080573467333735
   95    1  5.01724  4.85000   14.978269783084501   18.999611799114007   45.000847041156156
   96    1  4.91379  4.85000   25.003626519440498   14.754938081846863   56.326568649633359
   97    1  4.91379  4.85000   21.917368583818799   40.727699904638662   80.034247589718348
   98    1  4.91379  4.85000   33.207070000086489   18.561027296108911   25.703744223493342
   99    1  4.91379  4.85000    8.226820238990964   24.195630851692378   81.772488421250443
  100    1  4.91379  4.85000   31.975125088270516   39.862645543474216   72.957214350546622
  101    1  4.91379  4.85000   15.360891803972827   25.350977944886150   60.727853635731968
  102    1  4.91379  4.85000   19.537142747507158   44.771944446160504   11.912999835922228
  103    1  4.91379  4.85000   37.910411635544349   23.614448545771715   44.402499842272739
  104    1  4.91379  4.85000    7.075434181218947   33.352171321528530   26.935114460089558
  105    1  4.91379  4.85000   41.490088337006824   24.478548335125822   89.832687375048437
  106    1  4.91379  4.85000    3.797531240686206   40.596793238272078   31.339791527752688
  107    1  4.91379  4.85000    9.549145410884520   15.864174947367118    2.952878914411543
  108    1  4.91379  4.85000   30.615220315200212   27.926802209654053   49.992127497723892
  109    1  4.91379  4.85000   30.351494055037804    7.416326200878125   23.870944556343819
  110    1  4.91379  4.85000   42.849789499321645   34.731892745584602   69.252892728590638
  111    1  4.91379  4.85000   41.793003567741302   15.009420967268795   83.883836158496891
  112    1  4.91379  4.85000   37.219702130121981    5.557422705692316   86.357812391164543
  113    1  4.91379  4.85000   22.561066477370520   27.798149749252204   43.921898522970707
  114    1  4.91379  4.85000    8.697858751504782   18.822552227303593   88.319804203927845
  115    1  4.91379  4.85000   10.678026262785497   29.471520962757463   93.410563533544163
  116    1  4.91379  4.85000   27.964517940824660   39.081871149315241   60.035856705559240
  117    1  4.91379  4.85000   41.671080160153863   28.772157112800816   45.814482831767123
  118    1  4.91379  4.85000   43.160303685525093   24.393544606000944   65.641612487936371
  119    1  4.91379  4.85000   38.915823651405475   11.207259229471163   60.776624361029349
  120    1  4.91379  4.85000   34.407771203621067   46.731646421022141   48.566949482559131
  121    1  4.91379  4.85000   28.830796761410276   40.363773713545982    7.522150340751894
  122    1  4.91379  4.85000   15.266240565030937   43.865124385663059   92.776483581710508
  123    1  4.91379  4.85000   46.812156741743259   29.537907020775314   77.262421369289470
  124    1  4.91379  4.85000   17.534424331725994    6.533081925744689   17.447451149378946
  125    1  4.91379  4.85000   25.497714507109617    7.867170468987253   64.110280160871682
  126    1  4.81034  4.85000   20.822445477483534   46.957556322324145   60.797002691390951
  127    1  4.81034  4.85000   11.148851727036620   34.723640118287669   53.212705849277249
  128    1  4.81034  4.85000    6.082423495317544   33.364112377070285   49.356322131067394
  129    1  4.81034  4.85000   35.006771538836361   33.530936819937139   52.247384561604811
  130    1  4.81034  4.85000    9.980936048084903   11.049582709972146   32.397026876318876
  131    1  4.81034  4.85000   14.108354792658185    4.276811381994236   89.724019281357926
  132    1  4.81034  4.85000   41.881708522034138   42.856918514829680   60.055720476088261
  133    1  4.81034  4.85000   40.831918275131059   12.173523308310468   29.716542118010622
  134    1  4.81034  4.85000    9.926599165148721   20.961133989371451   16.763038987803881
  135    1  4.81034  4.85000   34.736685603110097   24.500658114786845    7.364344853118713
  136    1  4.81034  4.85000    3.851121873510957   14.678794223239715   47.891759968100125
  137    1  4.81034  4.85000   19.669478490789992   11.652809389603727   54.024595567030595
  138    1  4.81034  4.85000    2.887210201803507   13.608338666936913   91.131265809044407
  139    1  4.81034  4.85000   23.628350066064893   31.202281701895537   34.254747172287253
  140    1  4.81034  4.85000   19.768636126793513   34.953404683402049   96.933678222785275
  141    1  4.81034  4.85000   14.155516906145049   20.297188577737334   83.718457673671708
  142    1  4.81034  4.85000   22.987800044559343   22.482684168257261   71.124340853558195
  143    1  4.81034  4.85000    8.868092899149365   11.619042855842634   78.447643896999281
  144    1  4.81034  4.85000   21.926933819242542   36.409493652136419    8.845986852820189
  145    1  4.81034  4.85000    6.805484412745686   24.582166864297498   52.069485910244097
  146    1  4.81034  4.85000   20.394844795304625   39.814937994941154   19.777079260900326
  147    1  4.81034  4.85000   33.548441908479610    7.108933152968527   31.593239890146709
  148    1  4.81034  4.85000   40.861898217396188   31.861845339961899   25.388605686597302
  149    1  4.81034  4.85000   41.069790816708114   42.865380786997996   28.673790103940011
  150    1  4.81034  4.85000   21.975991587763957   37.827684948278744   61.620140184736478
  151    1  4.81034  4.85000   42.707377156255689    4.149458573001203   32.754021580216218
  152    1  4.81034  4.85000   19.703828800501526    4.475974008620653   88.549072142132786
  153    1  4.81034  4.85000   12.082712174752695    9.976575119830590   51.473376534341973
  154    1  4.81034  4.85000   15.616496990974785    2.592493667811319   33.720746978240669
  155    1  4.81034  4.85000   11.302770261210155   20.253796819591162   61.798079105450192
  156    1  4.81034  4.85000   41.494736248992773   44.866107318913890   79.950904713089059
  157    1  4.81034  4.85000   24.209626615913145   19.975925329038326   63.569159424133190
  158    1  4.81034  4.85000   23.580761326869375    7.025101755889262   27.826290260236938
  159    1  4.81034  4.85000    3.048995707671313   29.845310784767939   35.362423133019249
  160    1  4.81034  4.85000   28.655786755496283   32.158675315744581   45.166404271130936
  161    1  4.70690  4.85000   37.616416413671317   29.717494639299648   95.227492439344005
  162    1  4.70690  4.85000    2.947580375510869   17.655534640880756   86.428692592346309
  163    1  4.70690  4.85000    6.106734925676120    4.175470492682652   58.255320241235353
  164    1  4.70690  4.85000   12.091251529215235   38.592433454626580   71.940918131604690
  165    1  4.70690  4.85000    5.750062430015163   39.716491036044935   95.228066638703666
  166    1  4.70690  4.85000   23.860193404629005   19.934956596198894   79.015388998933176
  167    1  4.70690  4.85000    3.582202358673354   44.698350695481984   53.974615470789686
  168    1  4.70690  4.85000   46.728947109212008   33.500683286647323   35.002905843257153
  169    1  4.70690  4.85000    8.474383705524424   12.615862637076091   49.382721834162346
  170    1  4.70690  4.85000   11.311120910660906   34.263642671400092   10.317826947301844
  171    1  4.70690  4.85000   47.148125808550411   39.054269298916225   69.161165795600652
  172    1  4.70690  4.85000   24.136592768838351   20.766268180827666   58.783580356545805
  173    1  4.70690  4.85000   11.230453029831647   37.518494877162311   22.921071430497062
  174    1  4.70690  4.85000   35.284443314570844   43.211630241045789   93.113494283617683
  175    1  4.70690  4.85000   22.238365928818403   14.702170286942941   60.434110696397020
  176    1  4.70690  4.85000   41.654280680857489   12.610559673782898   47.064879277814825
  177    1  4.70690  4.85000   17.213487299870440   28.406354425773419   95.177326422404519
  178    1  4.70690  4.85000   22.601576925655774   30.269983403445877   56.198585728913955
  179    1  4.70690  4.85000    4.855964919023807   29.321030767486562   22.329641766800332
  180    1  4.70690  4.85000   17.166655324645760   14.996830811202129   36.080633674065432
  181    1  4.70690  4.85000   40.198222336368374   43.863652691523349   88.307571360344610
  182    1  4.70690  4.85000    6.727453990335844    3.663001882965924   70.785251868341689
  183    1  4.70690  4.85000   36.169780249226449    2.711586804219866   59.662918294947595
  184    1  4.70690  4.85000   45.813510776066025    5.947699807552941   85.812288599309923
  185    1  4.70690  4.85000   16.001852252573524   31.745372762603449   62.600252108494914
  186    1  4.70690  4.85000   27.020492157560255    7.316689394679756    6.368731529857335
  187    1  4.70690  4.85000   16.365482206537109    4.978676097466211   49.520122581559185
  188    1  4.70690  4.85000   38.783994866343903    6.728751731579614   56.569727173384820
  189    1  4.70690  4.85000    4.444421489539454    9.360261880659367   88.754178584467880
  190    1  4.70690  4.85000   22.863060554866305   36.291362822043091   37.269863602296375
  191    1  4.70690  4.85000   14.102118969699454   29.450713432590820   89.411365430325901
  192    1  4.70690  4.85000   14.373421042427804   19.680823807309764   56.091183121276899
  193    1  4.70690  4.85000   32.768781159953583    8.058204196978085   59.243093698889922
  194    1  4.70690  4.85000   19.236158179748809    5.643284972790577    3.430463576911216
  195    1  4.70690  4.85000   12.968833730806338   37.593154805532961   28.350590245837232
  196    1  4.70690  4.85000    7.174253462929286    3.677471065962274   96.406518941969239
  197    1  4.70690  4.85000    3.865624149290564   36.071520250310243   90.246691026530655
  198    1  4.70690  4.85000   34.738628963684569   13.007139860656920   78.896045977018161
  199    1  4.70690  4.85000   15.886514175991493   16.314320067445582   29.022862740036285
  200    1  4.70690  4.85000    3.517405673771306   10.719227013670624   72.186857693302045
  201    1  4.60345  4.85000   30.089930517192805    5.707886124645016   39.449082546211486
  202    1  4.60345  4.85000   23.819833869356337   23.060832005129221   12.683833553880593
  203    1  4.60345  4.85000   27.538804020182326   39.626665185500123   38.724621513385742
  204    1  4.60345  4.85000   12.736653695097839    7.655632033874906   44.868696293394692
  205    1  4.60345  4.85000   18.762978771932410   25.737822401326049   88.235727617678876
  206    1  4.60345  4.85000   18.334446986226531   12.363322305075041    4.758715944744220
  207    1  4.60345  4.85000   36.320647385960150   10.370317354938237   51.067590369327185
  208    1  4.60345  4.85000    9.788354619067603   10.898929417275987   64.840106291183730
  209    1  4.60345  4.85000   36.332898160550123   28.370118569199889   76.610685148865272
  210    1  4.60345  4.85000   46.443329459961483    6.334730126591960   66.617756701872523
  211    1  4.60345  4.85000   10.391339068355585   11.650956454325993   89.317241846679025
  212    1  4.60345  4.85000   19.655763697052166    9.064063929548377   33.698828152546270
  213    1  4.60345  4.85000   26.207820421982316   46.314781779086921   93.885895544621704
  214    1  4.60345  4.85000   45.804966560507452   28.420806789001947   59.936408156410124
  215    1  4.60345  4.85000   37.461653605332984   36.770162435629359   63.135859886998503
  216    1  4.60345  4.85000   28.758638537016758    4.137599542523504   80.114184419017718
  217    1  4.60345  4.85000   22.980933710795117   33.208073231618762   78.783114434266849
  218    1  4.60345  4.85000   42.414706942696405   33.548394270953295   12.377539800463111
  219    1  4.60345  4.85000   15.879311757412538   39.212408036494217   67.352928046132277
  220    1  4.60345  4.85000   38.338230436071122   39.008990981451319    8.237121530394042
  221    1  4.60345  4.85000   40.973506999099214   23.000061292299261    3.102691575150279
  222    1  4.60345  4.85000   38.616718276887617   18.747511661414457   84.742594927390499
  223    1  4.60345  4.85000   42.868523819090854    7.438014074661981   72.100869524858837
  224    1  4.60345  4.85000   27.072895949624812   24.414180618494658   92.857117762522847
  225    1  4.60345  4.85000    4.374953540020677   33.133974968483848   44.294179641258658
  226    1  4.60345  4.85000   37.442848384198328   41.528322636952062   70.354748329726249
  227    1  4.60345  4.85000   28.614021814117933    3.464946002094067   69.782915830543857
  228    1  4.60345  4.85000   10.556165005711634   17.104693740022768   53.071907584535246
  229    1  4.60345  4.85000   33.271469928174810   23.880950855390882   13.556020511095912
  230    1  4.60345  4.85000   25.502943711512128   35.627938480029236   65.804235710747292
  231    1  4.60345  4.85000   47.358781563612297   13.817435027178568    9.798900585909688
  232    1  4.60345  4.85000   42.945057707138950   13.740608163037688   70.136793915456167
  233    1  4.60345  4.85000   13.361673214432290   32.779847062495818   97.683576831159399
  234    1  4.60345  4.85000   40.756176940089190   18.458757738362298   44.018221422234703
  235    1  4.60345  4.85000   15.990882173665131    9.486331952798816   95.430294949946827
  236    1  4.60345  4.85000   25.153742295050559   22.549517033569241   97.421658496657258
  237    1  4.60345  4.85000   34.512502250906003    8.929215435406523   69.398127086429554
  238    1  4.60345  4.85000   44.441992049586560   19.025470927171703   61.482951335458054
  239    1  4.60345  4.85000   17.828804489103174   23.293283986294199   79.613164322545146
  240    1  4.60345  4.85000   29.582500548220402   30.008692572433567   63.989579073937612
  241    1  4.60345  4.85000   31.603693857636625   28.722915748334355   32.470525946102001
  242    1  4.60345  4.85000    7.066645498384058   33.847937324340329   72.643522043666351
  243    1  4.60345  4.85000   41.582749101140202   33.680252026600357   33.412844476035254
  244    1  4.60345  4.85000   27.995489668913805   30.252601178901848   74.607906878789905
  245    1  4.50000  4.85000   19.095476983600783   43.823020670983055   24.963987009339700
  246    1  4.50000  4.85000   32.256589792591917   45.659094999549112   87.239469591403605
  247    1  4.50000  4.85000    6.512029211417261    6.870206677999884   42.490565080908226
  248    1  4.50000  4.85000   14.703763292213315   23.414770386224628    8.076868704911263
  249    1  4.50000  4.85000   38.323036181229909   26.550503626601373   23.141382632382218
  250    1  4.50000  4.85000   33.151802150826711   21.477325655554829   82.818892522404184
  251    1  4.50000  4.85000   26.947438689064249   16.201081631460756   74.624349500071830
  252    1  4.50000  4.85000   11.651895703200806    3.214561666756172   28.477340498098034
  253    1  4.50000  4.85000   25.061413861468232   13.933662389012069   13.765765629943646
  254    1  4.50000  4.85000   43.742403688848832   27.110751950711624   32.943637911097319
  255    1  4.50000  4.85000   36.973697184555455   12.821453642406578   91.913758009516286
  256    1  4.50000  4.85000   24.274217565919123   16.174316130488016   48.658158900804381
  257    1  4.50000  4.85000   26.214749967738964   10.671851547540163   88.900558496036624
  258    1  4.50000  4.85000    6.745344928459139   44.676145323328818   39.499563868662413
  259    1  4.50000  4.85000   35.364331525527952   31.113178712322174   42.346976250771149
  260    1  4.50000  4.85000   39.198226095299731   19.588884609875297   69.601390184913868
  261    1  4.50000  4.85000   27.967172134569584    2.758319927409964   52.207493735613518
  262    1  4.50000  4.85000   31.877498095108386    4.191967488113816   64.352420746763272
  263    1  4.50000  4.85000   19.034822294113749    3.511702819370691   23.911711359777275
  264    1  4.50000  4.85000   43.490612870369894   15.455482416259217   75.438324958554077
  265    1  4.50000  4.85000    3.030233257276237   32.163737801318767   58.550758181724774
  266    1  4.50000  4.85000   21.554232564739337   14.095325422937515   91.342055295735506
  267    1  4.50000  4.85000   33.171545458891593   43.666500185852954   20.495876439032799
  268    1  4.50000  4.85000   16.697583244522043   47.088181295815566   17.874713989541675
  269    1  4.50000  4.85000    3.552238440210711    9.200826995929759   21.297752677913273
  270    1  4.50000  4.85000   33.149780390642256    3.260629714872765    2.363926075536762
  271    1  4.50000  4.85000   45.610206929034348   16.179362039072728   31.549312834656053
  272    1  4.50000  4.85000   32.229461715676905    5.366882343237087   94.114783766302523
  273    1  4.50000  4.85000   11.629538906683546   15.766501380267432   70.976292333686573
  274    1  4.50000  4.85000   45.350187177964095   29.709299663747633   14.487331701297714
  275    1  4.50000  4.85000   30.248097165588351   46.140036422250660   68.480241061904252
  276    1  4.50000  4.85000   38.035143927670376   37.636397816671433   15.409420401227576
  277    1  4.50000  4.85000   30.373147913214471   43.958489063921540   82.028218998852211
  278    1  4.50000  4.85000   34.807021893274502   17.460982812459342   74.420387215255047
  279    1  4.50000  4.85000   27.977002536010147   47.731791002845092   19.677182862600834
  280    1  4.50000  4.85000   34.984606046043091   46.853796703699345   23.919576482493895
  281    1  4.50000  4.85000   46.088189624956193   11.104314225594736   54.742671824724695
  282    1  4.50000  4.85000   15.841980494229020   28.399182092336702    4.528468620227417
  283    1  4.50000  4.85000   31.645089867358603   45.284328098938381   14.228282449977973
  284    1  4.50000  4.85000   41.731249052955881   44.800589875199179   73.045208233995879
  285    1  4.50000  4.85000   15.191254474719656    5.579934828223265   56.533358535628849
  286    1  4.50000  4.85000   27.637602269354520   28.672149752600411   24.295535085216233
  287    1  4.50000  4.85000   18.159386239744844   21.085075021830239   94.590178965946322
  288    1  4.50000  4.85000   47.067380167861607   45.960797504217112   81.426938260263725
  289    1  4.50000  4.85000    8.148780617511278   15.107633029589675   41.708989222746546
  290    1  4.50000  4.85000   31.113183403174304   38.948959097077335    3.252623924328654
  291    1  4.50000  4.85000   31.991911852816312    9.989378974349439   95.485874354307683
  292    1  4.39655  4.85000   13.618976982684714   47.566897944005071   49.441177124418836
  293    1  4.39655  4.85000   34.432939029089660   29.890492262738153   25.906863966862037
  294    1  4.39655  4.85000   46.447636719413467    4.692722689407623   13.736276343113612
  295    1  4.39655  4.85000   13.202143462279384    4.035057988405253    3.661414621710523
  296    1  4.39655  4.85000   13.302156430538126   45.607936644899382   65.923796024600790
  297    1  4.39655  4.85000   36.370236373878313    6.962513784770470   46.203940310324093
  298    1  4.39655  4.85000   22.212640245094676   20.244823281630307   50.810093882095039
  299    1  4.39655  4.85000   21.903107751673836   16.315013160308432   16.255344407808526
  300    1  4.39655  4.85000   22.465251658403066    2.557067662984468   95.396756864529152
  301    1  4.39655  4.85000    8.888378754994665   46.116955203604910   47.831523746060284
  302    1  4.39655  4.85000   28.932828336813099   34.546247803363940   76.879183571676606
  303    1  4.39655  4.85000    4.110452445798285   24.729625478796333   84.303217409167942
  304    1  4.39655  4.85000    6.091214134085580   24.780870113179336   96.348575753539222
  305    1  4.39655  4.85000   11.438281458013407   39.936132784974063   60.084553094746163
  306    1  4.39655  4.85000   17.845773600975576    6.570678409282248   44.659259023730861
  307    1  4.39655  4.85000   11.064325358942321   29.552926152820092   36.482614087006191
  308    1  4.39655  4.85000   12.553605253689920   28.501904013683987   83.111519169545303
  309    1  4.39655  4.85000   35.270158561422264   13.215294403415403   72.356189483631283
  310    1  4.39655  4.85000    4.369940322418776   19.807629513310790   55.693480313872413
  311    1  4.39655  4.85000   31.619878997746024   35.134953494783488   97.760976305658971
  312    1  4.39655  4.85000    5.874373336213958   37.923186869692287    5.759414463454608
  313    1  4.39655  4.85000   16.825798586019410   11.708552132756603   39.837361381685447
  314    1  4.39655  4.85000   20.154212525262334   18.931612135332738    3.881255085264496
  315    1  4.39655  4.85000   29.262299529233797   39.430561779067759   96.971207916636956
  316    1  4.39655  4.85000   41.448720048281238   29.596245414293552   92.337347325762039
  317    1  4.39655  4.85000    5.278931231955509    9.918930419099160   26.648300327389975
  318    1  4.39655  4.85000   46.095044449137731   23.457688178988956   70.370294183815929
  319    1  4.39655  4.85000   42.316641713024914   42.614328255314092   16.459625693742318
  320    1  4.39655  4.85000   17.177483946900793   38.144388972444197   61.608176495440837
  321    1  4.39655  4.85000    2.856377909893163   40.748762182573209   77.613753591230463
  322    1  4.39655  4.85000   30.092613961727697   38.974600198809455   88.225274366698713
  323    1  4.39655  4.85000   45.873404837128604   21.395652404794220   50.476836347054764