LAMMPS data file

  6418  atoms

   3 atom types

  0.0000000000000000000  50.0000000000000000000 xlo xhi
  0.0000000000000000000  50.0000000000000000000 ylo yhi
  0.0000000000000000000 100.8333333333333285964 zlo zhi

Atoms # sphere

    1    1  5.94828  4.85000   15.401846519136901   29.994996262368542   80.811922547966674
    2    1  5.94828  4.85000   40.291989147595295    9.281988884045797    4.215729199216495
    3    1  5.84483  4.85000    4.203220299701696    5.085228337524849   27.642733659191407
    4    1  5.84483  4.85000   13.656960867980462   22.277031661361907   93.299063874430544
    5    1  5.74138  4.85000    7.558602640202643   37.886387018274121   61.778030995593049
    6    1  5.74138  4.85000   19.399418688377395   36.218749377245423   72.442329234695620
    7    1  5.74138  4.85000   12.015759305959033   44.767168195706148   63.447395360650908
    8    1  5.74138  4.85000   13.113412794181370   41.217474950283489    9.407327978905917
    9    1  5.63793  4.85000   29.790462401345721   36.611012008934502   68.413505075699717
   10    1  5.63793  4.85000    7.903363334931608   19.612439600492198   42.021328565026529
   11    1  5.63793  4.85000    6.079024189729243   11.333094585401394   65.972727002500477
   12    1  5.63793  4.85000   20.355171688370230   44.369613169882982   67.473019020078553
   13    1  5.63793  4.85000   14.085768559656035   29.131226653980171    7.495634060537892
   14    1  5.53448  4.85000    4.686803367316833    4.605241571607279   19.728215857818370
   15    1  5.53448  4.85000   44.950408835171878   35.691775020162915   24.158223625715777
   16    1  5.53448  4.85000   19.597162866123654   21.430083352738375   65.051334058699041
   17    1  5.53448  4.85000    3.551167163889321   46.253134754822810    7.910394781710913
   18    1  5.53448  4.85000   21.523988342098043   15.020188405533695   34.713532136118936
   19    1  5.53448  4.85000   12.685321179619724    3.040472666192502   25.798621219686257
   20    1  5.53448  4.85000   44.445981296526597   32.925885453363996   19.270700974929309
   21    1  5.43103  4.85000   25.147146860820691   26.002526092364409   33.003226050116538
   22    1  5.43103  4.85000   15.645644599403212   11.221873785045588   29.075715328521465
   23    1  5.43103  4.85000   27.673167849761704   34.940618162373347   51.334769115582134
   24    1  5.43103  4.85000   20.144417175613903   18.224385808640871   40.647155777073188
   25    1  5.43103  4.85000   20.052284509025757   11.036983282477589   89.082446273384861
   26    1  5.43103  4.85000   16.748931312727869    3.745152797603913   31.497796561871766
   27    1  5.43103  4.85000   14.627635851278527   13.454424005059586   65.914495620768491
   28    1  5.43103  4.85000   37.626339015131819    4.352089763707625   37.443827682118766
   29    1  5.43103  4.85000   19.114263510609039    8.733722843463294    5.578067556881932
   30    1  5.43103  4.85000   23.623688032746006   36.310588676199359   85.412290012917282
   31    1  5.32759  4.85000   46.822291624015733   43.555897219206010   73.812088434881119
   32    1  5.32759  4.85000   34.398183525708049   16.043957670390800   91.578696655411591
   33    1  5.32759  4.85000    4.096498809262368   19.772187763902519   72.209505449389283
   34    1  5.32759  4.85000    2.997513554909623   38.313335303563100   43.103597609925487
   35    1  5.32759  4.85000   15.394911358461359   31.825346359662177   86.843294024399086
   36    1  5.32759  4.85000   39.100560770999707    7.470125011043464   21.371488638927065
   37    1  5.32759  4.85000   13.035356939535763   27.319270215786855   23.450478412228534
   38    1  5.32759  4.85000   44.465887077821108    4.581299414686930   88.363424152539125
   39    1  5.32759  4.85000   14.037114357077048   34.108568858596783   13.283280326289109
   40    1  5.32759  4.85000    7.969679377599038   25.276470960720292   27.536851271787903
   41    1  5.32759  4.85000   13.894365957427812   24.277269188035330   31.678008753168111
   42    1  5.32759  4.85000   42.965389068780091   41.659998461208730   50.080629667752056
   43    1  5.32759  4.85000   23.013402598644827   14.120347412528986   28.558892381054235
   44    1  5.32759  4.85000   29.493533397091333   37.290603118414190   27.108651744816648
   45    1  5.22414  4.85000   30.544924082413036   45.668791127523669   89.001038856878580
   46    1  5.22414  4.85000   25.676419618073126   34.703030040559646   41.128542682381898
   47    1  5.22414  4.85000   41.178626374228536   33.986595227109007   95.678746410298501
   48    1  5.22414  4.85000    5.402739709556927   15.342146230290437    8.972961012392501
   49    1  5.22414  4.85000   34.849542988836660   22.239344690206831   72.174324741690725
   50    1  5.22414  4.85000   40.330038550159770   31.839911845470013   89.790473957003854
   51    1  5.22414  4.85000   19.190227683625224   42.555066338939987   47.940181663467875
   52    1  5.22414  4.85000   19.750209615828727   15.772806585168510   46.122824585659743
   53    1  5.22414  4.85000   44.338798374217262   24.886133810542354   27.515785845745658
   54    1  5.22414  4.85000    9.077231174767768   10.324413445171009   49.666760089636313
   55    1  5.22414  4.85000    4.184652099128883   35.435247746367800   74.217868602271437
   56    1  5.22414  4.85000    3.228602819772960   43.503325696777296   44.034746954496335
   57    1  5.22414  4.85000   44.547326230250476   22.041801131181909   78.026140888055707
   58    1  5.22414  4.85000   46.543934265502685   18.282810574143760   46.301258891339735
   59    1  5.22414  4.85000   20.447549308760880   16.848652885066418   52.993443180726423
   60    1  5.22414  4.85000   31.378466836402179   26.856684068793509   86.595398951043393
   61    1  5.22414  4.85000   36.271997393412690   14.249560753822877   13.970245859528839
   62    1  5.22414  4.85000   21.290340392302834   24.687198580104230   56.303672106262624
   63    1  5.12069  4.85000   39.546470497501936   39.685434806839048    5.383683606387915
   64    1  5.12069  4.85000   12.773674373269371   43.072063825935238   83.243973397956140
   65    1  5.12069  4.85000   44.888638795199640   31.771924507906405   35.599688091770382
   66    1  5.12069  4.85000   26.505557970209129   40.037288258253042   63.953961773677577
   67    1  5.12069  4.85000   35.081211376478649   44.511444661578501   18.059102062477663
   68    1  5.12069  4.85000   33.855652707668881   10.897086165752356   32.381009810106917
   69    1  5.12069  4.85000    7.928340628910659    9.719968823958764   11.141860141587618
   70    1  5.12069  4.85000   41.325879975330885   15.561546257862858   66.573315831093197
   71    1  5.12069  4.85000   24.697971842434974   26.380673007108701   70.380709678895599
   72    1  5.12069  4.85000   24.573062761732761   34.099414002199516   10.717244322092334
   73    1  5.12069  4.85000   47.116097160383646   27.419669360152138   41.639218692188024
   74    1  5.12069  4.85000   28.511448487322856   17.643559073727467   60.352482634800047
   75    1  5.12069  4.85000   21.333787474751432   44.794557047131882   87.162597649659318
   76    1  5.12069  4.85000   46.935221288829673    6.011385145970875   52.146189566582017
   77    1  5.12069  4.85000    6.790799299375839   21.188145900015769   63.412160186036886
   78    1  5.12069  4.85000    6.038300674321119   19.832911699476380   26.454665400053827
   79    1  5.12069  4.85000   34.693871529139415   38.540303057135972   66.674907742564059
   80    1  5.12069  4.85000    9.958812678683572   41.988360918738671   56.166062242473537
   81    1  5.12069  4.85000   16.244285264376479   25.313145108207767   42.663701523736130
   82    1  5.12069  4.85000   35.929780411178356   30.162128305084117   26.081981292154818
   83    1  5.12069  4.85000   15.326955841458142   16.641027212313535   49.916254851047000
   84    1  5.12069  4.85000   25.702804776899285   41.246745622076681   90.578423702365413
   85    1  5.12069  4.85000    6.251158306843943    7.933199227250968   39.631669933302618
   86    1  5.12069  4.85000   21.280374564760741    5.475181727036993   39.903946063367371
   87    1  5.01724  4.85000    8.678120492285817   15.813711182119484   17.701402775457382
   88    1  5.01724  4.85000   12.984497881008810   11.822031661192316    4.960242376965309
   89    1  5.01724  4.85000   36.636228669329576   45.256038723148968   90.982658777814208
   90    1  5.01724  4.85000   21.432973143733740    9.503497665673905   73.432846885926736
   91    1  5.01724  4.85000    6.218551550317536   13.643088608910535   59.576154640750836
   92    1  5.01724  4.85000   39.293405993725536   15.582262008555496   58.505129078502186
   93    1  5.01724  4.85000   33.419373187158278    5.265994526661043    6.261233832384459
   94    1  5.01724  4.85000   11.681633203139951   36.196980785808442   53.359349536819337
   95    1  5.01724  4.85000   42.116299847199400   28.974824950183290   65.184475961954988
   96    1  5.01724  4.85000   38.241526175548358   12.326545955761633   47.205949760092146
   97    1  5.01724  4.85000   30.089570560806777   38.482380850798243   47.992351279913919
   98    1  5.01724  4.85000   39.338255834348132   20.292732203451585   41.144792083860814
   99    1  5.01724  4.85000    8.971777402034878   25.522704154246284   17.600665826121656
  100    1  5.01724  4.85000   11.296654415520001    9.816244631367667   85.043587241988931
  101    1  5.01724  4.85000    3.948833925479844   35.281729563713917   12.837517495289909
  102    1  5.01724  4.85000   32.789252793234191   11.948281185485394   86.754329928379562
  103    1  5.01724  4.85000    7.903442197418744   37.121368868516981   27.044980421423290
  104    1  5.01724  4.85000   14.049824371651368   34.850842746497783   62.607747081588741
  105    1  5.01724  4.85000   33.508958487613867   12.414569769069248   65.710395702715985
  106    1  5.01724  4.85000   19.541339205671918    4.323229779419317   52.002675889885516
  107    1  5.01724  4.85000   32.866890412149857   24.845820690166668   61.379411731628551
  108    1  5.01724  4.85000   38.800346232654078   29.121040992782184    2.766611670456444
  109    1  5.01724  4.85000   42.793840557978321   36.650331623020236   34.313895198096567
  110    1  5.01724  4.85000    6.275241595179864   21.587556824202807   55.337186967543936
  111    1  5.01724  4.85000    4.610915404358077   11.694296913258677   26.799524917940701
  112    1  5.01724  4.85000   27.758887919999950   26.925474405566774   51.512044992443307
  113    1  5.01724  4.85000   32.054667215913291    9.028982228172612   51.824484675167383
  114    1  5.01724  4.85000    9.337982221681074   42.910993026114021   91.472313798050877
  115    1  5.01724  4.85000    5.829102185297840   42.863184540207676   84.081916154352243
  116    1  5.01724  4.85000   40.272728086780454    8.712951259764633   56.111645347774321
  117    1  4.91379  4.85000   17.608375317081784    4.625125259729209   11.075739424891427
  118    1  4.91379  4.85000   31.693736471523504    4.921986253738085   28.668266080742772
  119    1  4.91379  4.85000    7.895388559205761   23.919117808706559   70.172848975461633
  120    1  4.91379  4.85000   16.975380634717425   29.449507404313707   57.272542200708415
  121    1  4.91379  4.85000    8.833518731402656   10.391082017238315   23.915932919004042
  122    1  4.91379  4.85000   20.783012210900807   28.310392807010274   63.406205653372716
  123    1  4.91379  4.85000   29.038988942819518   32.449035125547738   36.413378186971812
  124    1  4.91379  4.85000   16.355647722504472   18.968941682771923   12.200098232878180
  125    1  4.91379  4.85000   44.718712727695916    9.637797987113618   86.923371252576402
  126    1  4.91379  4.85000   30.212303774834950   24.645136221850844   41.406143167270834
  127    1  4.91379  4.85000   42.692826605806907   13.323032860951542   23.479126641887706
  128    1  4.91379  4.85000   32.351351638010684   40.349174703471654   14.043241805501545
  129    1  4.91379  4.85000   42.174060556547502   41.949638433304074   39.281436880357660
  130    1  4.91379  4.85000   22.771125958857859    4.809614684772032   45.698735751911890
  131    1  4.91379  4.85000   41.981275593660655   13.769716522377745   89.285988542150093
  132    1  4.91379  4.85000   33.765147904961957   44.159332752921458   11.242934314144101
  133    1  4.91379  4.85000   36.247983864885704   19.767503901726741    5.456007083080785
  134    1  4.91379  4.85000   15.432282418366935    7.344006086630346   46.108117753171179
  135    1  4.91379  4.85000   18.573392416952828    4.048612528051883   61.250811548798893
  136    1  4.91379  4.85000   27.749627130809674   20.767849279493337   23.616810791603875
  137    1  4.91379  4.85000   29.055821314014658   42.505395723640248    9.412193912063355
  138    1  4.91379  4.85000   23.304599737333312   10.629975178597832   62.109963400551742
  139    1  4.91379  4.85000   12.612321588833812   27.311113073869659   53.898491196661766
  140    1  4.91379  4.85000   44.196626370064486    6.140185998382931   83.086376804396338
  141    1  4.91379  4.85000   18.031807486041327   17.950372666030106   19.776759652484937
  142    1  4.91379  4.85000   35.251302743993222   34.263034901533459   87.659669206054218
  143    1  4.91379  4.85000   11.445076833473490   37.097021926891813   67.116882367431415
  144    1  4.91379  4.85000   36.795092333287187    9.093472753616222   81.727753720306168
  145    1  4.91379  4.85000   45.311330643593408   14.961325918449159   54.442232055391493
  146    1  4.91379  4.85000   28.881352781168516   22.306180443537130   66.134108673953648
  147    1  4.91379  4.85000   26.399996174379094   40.799741754097774   35.221807290194448
  148    1  4.91379  4.85000   23.612328925967741   40.436449094981505   58.732514010242610
  149    1  4.91379  4.85000   16.334482331054915   46.082724754471016   97.522264333532320
  150    1  4.91379  4.85000    9.247573007717435   33.096919884557224   94.092759164315595
  151    1  4.91379  4.85000   36.828464774889298   17.892545397855290   49.072274161924369
  152    1  4.91379  4.85000   20.510941783214165   10.119369723611591   12.948786801027978
  153    1  4.91379  4.85000   12.166108549502326   12.235761288196482   41.331449526476831
  154    1  4.81034  4.85000   17.912290801142429   30.001319043794503   21.553793245327380
  155    1  4.81034  4.85000   39.080306135783985   46.860953892126744   54.333577683132518
  156    1  4.81034  4.85000   13.278319487120077   33.497617446463309   38.870144305288790
  157    1  4.81034  4.85000    4.158775215754909   42.497757852009322   50.083174729123741
  158    1  4.81034  4.85000   21.447163178845507   37.965905743066649   64.288233599458849
  159    1  4.81034  4.85000    9.959135629127784    8.117452910834491   79.618556621560899
  160    1  4.81034  4.85000   18.678541710122229   11.949000665252601   41.030743979666468
  161    1  4.81034  4.85000   39.131861400844841   28.382097873435260   10.454987549724430
  162    1  4.81034  4.85000   42.796462804563589    4.072237413708091   20.343339878713799
  163    1  4.81034  4.85000   46.396145530391117   31.369666164074193   78.635729406064769
  164    1  4.81034  4.85000   35.342007309022236   43.145254236643034   64.663711857699184
  165    1  4.81034  4.85000   45.898300451861147   18.029356288662584   23.888954573385341
  166    1  4.81034  4.85000   27.267137068667765   14.347395664790135   13.431284781602564
  167    1  4.81034  4.85000   47.524061160330938   21.574173444950912   91.237694248168310
  168    1  4.81034  4.85000    4.553644399021641   13.218945614305058   47.327879010441329
  169    1  4.81034  4.85000   43.424797638530606   34.861485480134213   11.998434609921160
  170    1  4.81034  4.85000   17.138612736273295   29.141622040190953   29.256848260668484
  171    1  4.81034  4.85000   44.429711736451267   22.283986818986250   97.478164527615206
  172    1  4.81034  4.85000   39.927841760205389   34.383542399857227   69.323591856442349
  173    1  4.81034  4.85000   25.477493985781134    7.881561652351275   92.919889076738087
  174    1  4.81034  4.85000   33.781904651045579   26.408447493634615    9.961314503511998
  175    1  4.81034  4.85000   26.551113000071435   17.880751507462129    3.992046040080721
  176    1  4.81034  4.85000   37.431398054238322    6.197509776490556   72.653163978341055
  177    1  4.81034  4.85000   21.000769269997612   10.014454733218631   21.524971835086415
  178    1  4.81034  4.85000   30.579900285447856   33.841611210592767   15.303184754965606
  179    1  4.81034  4.85000    7.632035958127281   38.762271885023843   34.218030166410820
  180    1  4.81034  4.85000   18.634481244306329   37.123437934226907    8.895009334549938
  181    1  4.81034  4.85000   31.896879806133700    3.537809057524296   19.001325584220297
  182    1  4.81034  4.85000   39.913321597382485   21.004108322581750   64.395024089262549
  183    1  4.81034  4.85000   21.326244339400127   22.198651520867372   22.561859355975741
  184    1  4.81034  4.85000   29.369340314746442    3.387337271126114   91.288918821651308
  185    1  4.81034  4.85000   17.205953409827096   45.333443913031942   74.977655239260415
  186    1  4.81034  4.85000   24.863705974666555   10.271679510346459   24.691354756822520
  187    1  4.81034  4.85000   12.331200245570836   17.690244280974973   97.534456542396626
  188    1  4.81034  4.85000    5.230671380294744    4.745478768437996   78.829418979707384
  189    1  4.81034  4.85000   46.468955410467593   29.310589491240403   93.562494224743403
  190    1  4.81034  4.85000   26.378266573299506   42.267581757726205   51.077807180191336
  191    1  4.81034  4.85000   26.522639429952513    4.328240626942121   20.380835841892470
  192    1  4.81034  4.85000   40.379589288986551   11.464399871225821   74.898139084424670
  193    1  4.81034  4.85000   45.253808240891757   29.646647876789821    7.272683157940902
  194    1  4.81034  4.85000   25.399151991147615   12.580318507814686   80.202992494986390
  195    1  4.81034  4.85000   43.704882664497724   46.451328853763883   25.269684167513752
  196    1  4.81034  4.85000    2.484914868142711   46.731086535590855   69.186472818671248
  197    1  4.70690  4.85000   37.402313923864881   27.921271399182096   36.372066087545484
  198    1  4.70690  4.85000   13.180552902375537    6.699723515893742   63.155928095471097
  199    1  4.70690  4.85000   40.108621182375160   19.095295367486283   53.162672108730881
  200    1  4.70690  4.85000   28.210222930374897    2.687172695760430   76.940573383162032
  201    1  4.70690  4.85000    8.262831431150008   28.756628557526383   40.566436199036779
  202    1  4.70690  4.85000   47.120170583891309   41.177578508539312   88.962010577879468
  203    1  4.70690  4.85000   14.660641792674181   35.629651855637135   48.468712311067506
  204    1  4.70690  4.85000   30.716096930032599   17.394789701903363   40.763285618313574
  205    1  4.70690  4.85000   22.335207314562481   26.127552853310114   16.282970883722474
  206    1  4.70690  4.85000   45.659170638852032   43.670178322781020   67.438498815941074
  207    1  4.70690  4.85000   27.356434433259913   45.234668250741478   57.394927103239056
  208    1  4.70690  4.85000   19.642490551812859   31.722102955716370   44.473374689327947
  209    1  4.70690  4.85000   23.778354383756106   30.262200309846413   75.232081822031731
  210    1  4.70690  4.85000   37.760745758105784   25.134531660866905   92.512064304746119
  211    1  4.70690  4.85000   30.653941781285116   16.320000253077193    6.927641304760135
  212    1  4.70690  4.85000   13.246102760859824   47.397309902801645   85.693482234003469
  213    1  4.70690  4.85000   30.226334516611562   29.606929426695498   40.531692482108717
  214    1  4.70690  4.85000    9.239951832067813   46.382924518000593   45.282599551237318
  215    1  4.70690  4.85000   18.949169666546016   43.699665638060686   26.860360841200951
  216    1  4.70690  4.85000   22.268454785829483    4.541806630096543   89.571917591233714
  217    1  4.70690  4.85000   31.870503573763454   44.520942425383915   23.145860469025376
  218    1  4.70690  4.85000   27.514556850615506   34.374106864147002   80.356560717888996
  219    1  4.70690  4.85000    5.285981562711125   21.245049563057297   88.496797934842562
  220    1  4.70690  4.85000   34.509534425810166   33.152413421742260   19.883237931415209
  221    1  4.70690  4.85000   20.436604822965627   10.825610224454197   81.253790665065736
  222    1  4.70690  4.85000   38.086983248559946   38.924194607354337   18.496743409155744
  223    1  4.70690  4.85000    7.250982877673726   41.270297618259910   13.213832764049060
  224    1  4.70690  4.85000   23.211816169693531   42.824284144927795   75.385209912823839
  225    1  4.70690  4.85000   25.265593186507459   26.871652371419469   26.906319221453547
  226    1  4.70690  4.85000   38.959451072481784   21.572620482731978   10.154534665529773
  227    1  4.70690  4.85000    6.747708207984115   27.815071087675896   96.585700402445767
  228    1  4.70690  4.85000   47.154251390906019   28.216831953119001   74.646800926279539
  229    1  4.70690  4.85000   42.970254835182494   45.615851193047234   63.573146954367019
  230    1  4.70690  4.85000   19.159803651412822    3.342529813883155    2.918816139600116
  231    1  4.70690  4.85000   16.626135224344804   22.787943995594492   21.602196557401477
  232    1  4.70690  4.85000   18.888379894325997   25.963234432946251   74.230515163322792
  233    1  4.70690  4.85000   43.953159669090432   43.534402176556021   30.853007715326086
  234    1  4.70690  4.85000   15.758661780935265   17.698518218806367   28.916198140129080
  235    1  4.70690  4.85000   36.496107841952600   42.955699708968218   79.520240314165335
  236    1  4.70690  4.85000   37.216363283748528   30.880294306944862   31.393779384930085
  237    1  4.70690  4.85000   34.274592938492198   22.438773934000029   20.458054948515706
  238    1  4.70690  4.85000   38.093308800639186   19.201530274684917   93.625548789911633
  239    1  4.70690  4.85000   29.721587174649724   45.450256343250970   95.388145726849942
  240    1  4.70690  4.85000    4.051245183830512   40.531979380407861   58.059035009212963
  241    1  4.70690  4.85000   34.291394803310759   40.467904612700799   95.157408125497327
  242    1  4.70690  4.85000   25.337608212050050    9.985510144799530   10.468259433108026
  243    1  4.70690  4.85000   29.877026367310243   32.731137849337436   84.745459572336273
  244    1  4.70690  4.85000   38.314367016496341   33.276655653054625   58.437759148107141
  245    1  4.70690  4.85000   33.237690324067927    4.407290450942373   45.116955797308634
  246    1  4.60345  4.85000   44.155639776291174   40.551823259323697   60.813016467454851
  247    1  4.60345  4.85000   41.343949729353085   29.912145688469916   41.520332113917298
  248    1  4.60345  4.85000    6.807147595935120    3.875789894531694   65.457759413434374
  249    1  4.60345  4.85000   14.721037377005217   20.093210181625846   36.363728808882712
  250    1  4.60345  4.85000   29.106738766313732   19.274772095843375   51.376246575219781
  251    1  4.60345  4.85000   22.857731841066418   46.304853704261042   42.455218715465215
  252    1  4.60345  4.85000   32.892351874870634    6.146801152481056   86.252335379925967
  253    1  4.60345  4.85000   24.535617150130481   21.412704065485475   94.339617321070264
  254    1  4.60345  4.85000   23.803273304428174    2.852646786612707   83.983633714011802
  255    1  4.60345  4.85000   11.607694657131084   46.698847635281183   74.513047813866010
  256    1  4.60345  4.85000   22.073128553774872   41.898715686693812   82.794860478016531
  257    1  4.60345  4.85000   37.102718856027884   36.182186380552707   97.355849370489736
  258    1  4.60345  4.85000   16.999315337520056   43.850370428639870   56.932987026008647
  259    1  4.60345  4.85000   24.858980444799261    3.217370680485294   61.521220244083828
  260    1  4.60345  4.85000   26.628494653726509    3.437870144299533   56.005373644968003
  261    1  4.60345  4.85000   42.588484273177976   24.676103184495794   10.482326802404476
  262    1  4.60345  4.85000    4.481813945562729    8.340786094955815   91.527456097317796
  263    1  4.60345  4.85000   29.058475321924934   34.307499529246300   58.137071785625729
  264    1  4.60345  4.85000   37.277000019985323   47.381298201788127   70.999094727692977
  265    1  4.60345  4.85000   22.824255114344716    3.782844683459523    7.772481039464506
  266    1  4.60345  4.85000   36.915198348203113   19.100267077493964   17.759794430781863
  267    1  4.60345  4.85000   35.455349239615039   21.514391873347563   35.473902534051682
  268    1  4.60345  4.85000   43.233064634715710    9.530460975375561   17.814500156503200
  269    1  4.60345  4.85000   43.332037474974804    7.525633776961554   78.495897856634372
  270    1  4.60345  4.85000    2.789110848197175   41.315833916944278   92.479295090438683
  271    1  4.60345  4.85000   13.160178960514973   23.386103100241193   57.753052381716316
  272    1  4.60345  4.85000   22.129253673027723   15.533028424912057   66.288540553791876
  273    1  4.60345  4.85000   19.765344920862788   45.220071040069357   35.458296482637941
  274    1  4.60345  4.85000   36.786797916779221    4.039856237665012   31.889288908387364
  275    1  4.60345  4.85000   24.597098441261657   28.756075166459990    7.414517955970825
  276    1  4.60345  4.85000   41.452901195302196   20.862463254308160   58.873368264398316
  277    1  4.60345  4.85000    7.926855334313883   34.956914659266239   56.341735363300891
  278    1  4.60345  4.85000   42.530607938313622    8.420615930506798   35.871902985348640
  279    1  4.60345  4.85000   47.062941703182467   16.320216132467976   86.424766587830192
  280    1  4.60345  4.85000    6.921268041967112   17.542847191849884   79.001131502445645
  281    1  4.60345  4.85000    4.074048913207667   29.988088743416263   68.494360648407437
  282    1  4.60345  4.85000   37.006752053430105   40.639539628042499   44.832393172695603
  283    1  4.60345  4.85000   44.024997977372173   46.708919653810135    4.233337557153670
  284    1  4.60345  4.85000   45.710713523697386   42.783486079255503   45.496391999452648
  285    1  4.60345  4.85000   14.875442095218162   17.503612304714842    3.369646880029464
  286    1  4.60345  4.85000   44.948528666604943   15.734743916280003   37.141182569632065
  287    1  4.60345  4.85000   25.595206801497110    7.418297074591750   65.069323174422436
  288    1  4.60345  4.85000   12.075698342687073   26.763018687448987   67.980452081368739
  289    1  4.60345  4.85000   28.228539655066928   16.362792669668380   29.651957093044679
  290    1  4.60345  4.85000   43.711562172943502   30.449674573364650   49.753393486633819
  291    1  4.60345  4.85000   27.697572723462866   14.529874832257619   25.279958865846346
  292    1  4.60345  4.85000   43.615746508900955    3.205658438355001   37.172907690993625
  293    1  4.60345  4.85000   45.152561692062797   36.408593594276574   42.248745957649007
  294    1  4.60345  4.85000   31.216051170542691   28.269032783346905   22.951938245888854
  295    1  4.60345  4.85000   35.600791621502452    8.895157308778234   42.394581596410795
  296    1  4.60345  4.85000   47.297686439777777    9.434838536633901   70.565427085760703
  297    1  4.60345  4.85000   32.815702210431830   11.977551657420385   74.219931908726579
  298    1  4.60345  4.85000    7.375530496918953   41.658023972177347   30.004831416351269
  299    1  4.60345  4.85000    3.169718176184511   23.275576260733018   34.494805214812402
  300    1  4.50000  4.85000   35.047985079151012   46.722453607947415   35.143981567392295
  301    1  4.50000  4.85000   44.459358505541140   27.975179028019710   86.663553634827309
  302    1  4.50000  4.85000   42.103752985317620   20.358938710189822   31.254167712128975
  303    1  4.50000  4.85000   34.874862000781825   28.908182546231100   16.089685877015803
  304    1  4.50000  4.85000    2.452842561280439   11.441555186441464   52.363618966606865
  305    1  4.50000  4.85000   32.226414865891996   22.505664496718218   14.184940058247482
  306    1  4.50000  4.85000   41.195233048178068    7.475382552079019   65.138947896764961
  307    1  4.50000  4.85000   32.025647947286089   18.967139326077966   55.842253877084552
  308    1  4.50000  4.85000   33.140426180242933   30.599789721922836   74.433537588553847
  309    1  4.50000  4.85000   14.291660144312189    6.759971867312739    4.802116982957807
  310    1  4.50000  4.85000   25.692694999933799    9.313489198145334   17.364472766921928
  311    1  4.50000  4.85000   35.314473060525344    8.246754299442287   26.971140716473322
  312    1  4.50000  4.85000   41.740862287108641   24.434656708103788    3.697007508787208
  313    1  4.50000  4.85000   46.475768996657969   21.832769061367106   32.811100505394236
  314    1  4.50000  4.85000   17.036819323620435   36.825982316826682   86.499984264455762
  315    1  4.50000  4.85000   39.371069943444496   16.210403566364732    3.126743471921157
  316    1  4.50000  4.85000   37.879383883899692   29.042776950065871   45.273864388505508
  317    1  4.50000  4.85000   18.833966530846610   38.155318311237409   26.594104019321943
  318    1  4.50000  4.85000   24.026002061779455   19.341659302792245   74.657417932000698
  319    1  4.50000  4.85000   30.705540680368241   37.469002549890000   35.280845430798990
  320    1  4.50000  4.85000   42.619975636080689   39.578027504840755   86.500070809122761
  321    1  4.50000  4.85000   11.396894509359747   41.324741508019379   43.929573350866832
  322    1  4.50000  4.85000   13.238873451492971   35.549439682542356   23.568040317700316
  323    1  4.50000  4.85000   19.728118017072838   41.377296035383601   39.113303353830304