ITEM: TIMESTEP
1625000
ITEM: NUMBER OF ATOMS
15044
ITEM: BOX BOUNDS fm fm fm
0.0000000000000000e+00 7.5000000000000000e-01
0.0000000000000000e+00 7.5000000000000000e-01
0.0000000000000000e+00 2.0159574468085109e+00
ITEM: ATOMS id type x y z radius
   1330     2    0.024450546635    0.024639711092    0.023913986721    0.025000000000
   9595     1    0.068870246508    0.011028016987    0.011366223463    0.010000000000
   5445     1    0.085777131178    0.021696660401    0.010352898140    0.010000000000
    639     2    0.128672361167    0.023102984964    0.022287706064    0.025000000000
  11588     1    0.157668438302    0.009505928023    0.009533234551    0.010000000000
   4076     1    0.169864112752    0.024803492330    0.009942419762    0.010000000000
   6282     1    0.179713324797    0.009773765753    0.017278916797    0.010000000000
   2908     1    0.197879329288    0.009831576834    0.009070947585    0.010000000000
   8662     1    0.229095000103    0.009846311651    0.009538419291    0.010000000000
   3503     1    0.248837759353    0.009312668851    0.008575926829    0.010000000000
   9547     1    0.241248236679    0.026679349011    0.015918072788    0.010000000000
    275     2    0.275216994073    0.024562038701    0.023370086129    0.025000000000
   9777     1    0.308436989806    0.012114789195    0.011648829229    0.010000000000
    931     2    0.353857135768    0.024130741483    0.022974215911    0.025000000000
   5220     1    0.381218469092    0.009256411818    0.009492855905    0.010000000000
    330     2    0.409780944638    0.022677698439    0.022597430684    0.025000000000
   6517     1    0.446895428345    0.013646161610    0.010190712870    0.010000000000
   3689     1    0.468222952418    0.013042717081    0.011979210344    0.010000000000
   9470     1    0.488657754547    0.010607345021    0.012987835130    0.010000000000
   1017     2    0.532684324083    0.022879501870    0.022357636159    0.025000000000
  10470     1    0.560462131429    0.008953104734    0.008842504261    0.010000000000
   6869     1    0.603035667960    0.009394338875    0.008657618798    0.010000000000
  11062     1    0.615579477894    0.018090555694    0.025138321564    0.010000000000
  11224     1    0.622488253530    0.009221845262    0.009249831488    0.010000000000
   2084     2    0.649686831745    0.023528449852    0.024045726422    0.025000000000
   4443     1    0.693975044164    0.009794145604    0.009771668206    0.010000000000
   7965     1    0.714153656154    0.010001027998    0.009876141241    0.010000000000
   5397     1    0.733903680222    0.010413307724    0.009813537497    0.010000000000
   1815     2    0.066725053589    0.050476543636    0.024230276397    0.025000000000
  12830     1    0.099925834452    0.046960097111    0.009939182083    0.010000000000
   9030     1    0.187491607580    0.032558412175    0.013733088582    0.010000000000
   7869     1    0.206256114064    0.031629423781    0.007383322292    0.010000000000
  10195     1    0.211702484280    0.050309458465    0.009688288385    0.010000000000
   9839     1    0.225738570394    0.036326950694    0.008786033623    0.010000000000
   5922     1    0.302543595128    0.046943845935    0.010827050151    0.010000000000
  11762     1    0.317468343111    0.029673166476    0.014265924528    0.010000000000
  11544     1    0.327890054736    0.053540551742    0.010581547986    0.010000000000
   2858     1    0.380071202626    0.043302194602    0.010120773351    0.010000000000
   2117     2    0.451019234212    0.048783108378    0.023176239085    0.025000000000
   8239     1    0.480542556934    0.031978756996    0.009896232081    0.010000000000
   9026     1    0.500168115248    0.027314964573    0.010350385371    0.010000000000
   5680     1    0.559444363947    0.039009107997    0.008703112083    0.010000000000
   4932     1    0.586690323566    0.051219096440    0.008842595397    0.010000000000
   4879     1    0.610284135623    0.028188011390    0.009356293848    0.010000000000
  11803     1    0.679052134363    0.035432090773    0.009866028645    0.010000000000
   3860     1    0.697974504055    0.029237030656    0.009770928182    0.010000000000
   7100     1    0.698222766241    0.049375792602    0.009921218209    0.010000000000
   1988     2    0.023759454455    0.074284948619    0.023032132302    0.025000000000
   2128     2    0.109075376553    0.078842490435    0.022223444583    0.025000000000
   5364     1    0.131848970224    0.055356788534    0.010093475165    0.010000000000
   6726     1    0.140887934707    0.077659708286    0.010046785972    0.010000000000
   1251     2    0.164308799030    0.056244670826    0.023456908840    0.025000000000
   3182     1    0.190622917320    0.074968011714    0.009919729278    0.010000000000
   3901     1    0.198634175721    0.060341865631    0.020294387393    0.010000000000
  11160     1    0.210389592426    0.071836635892    0.009891272602    0.010000000000
   2229     2    0.240969056780    0.063021636703    0.023924133678    0.025000000000
   1951     2    0.287579256644    0.077792013990    0.022403004970    0.025000000000
   8222     1    0.354420588641    0.065060769685    0.008302794117    0.010000000000
   4814     1    0.381146873329    0.069216735771    0.011915586616    0.010000000000
   4304     1    0.397930413977    0.056243906529    0.011239106254    0.010000000000
  11193     1    0.417945548067    0.058213795528    0.010489057651    0.010000000000
   6991     1    0.439260818566    0.079818096726    0.010543688021    0.010000000000
  11468     1    0.472917417905    0.070921444572    0.008728691596    0.010000000000
    332     2    0.502048582498    0.060289229734    0.022883367888    0.025000000000
   1713     2    0.561973968331    0.069227293308    0.024212816407    0.025000000000
   1449     2    0.617614217004    0.059532095871    0.022066411211    0.025000000000
   5244     1    0.642587622592    0.078079687555    0.008679887996    0.010000000000
    563     2    0.671355035535    0.067108823307    0.023139746417    0.025000000000
   2906     1    0.740636821364    0.061900710752    0.009339608724    0.010000000000
   7273     1    0.009780945051    0.103165694801    0.009804954524    0.010000000000
   9606     1    0.072127937294    0.083041619938    0.012149135744    0.010000000000
  11552     1    0.068648860882    0.106488949834    0.012398846850    0.010000000000
   6614     1    0.150763524419    0.106211061437    0.010949017998    0.010000000000
   5032     1    0.157411099063    0.087486199418    0.009630868009    0.010000000000
  10476     1    0.205954781035    0.091194667384    0.009721752363    0.010000000000
   9938     1    0.319291883087    0.100974635908    0.008515354213    0.010000000000
   6876     1    0.362089627436    0.105730472856    0.012342863710    0.010000000000
   2976     1    0.367465044378    0.083547190200    0.009977765325    0.010000000000
   2600     2    0.407724035037    0.090947329610    0.020659522391    0.025000000000
  10503     1    0.443723446632    0.098963816714    0.009757511244    0.010000000000
   6652     1    0.523998291514    0.083879095960    0.009861798670    0.010000000000
  11779     1    0.538424598015    0.093929814240    0.017549788913    0.010000000000
   3746     1    0.554565128409    0.099264275326    0.009210108976    0.010000000000
   5933     1    0.592310329619    0.082035807920    0.010162617477    0.010000000000
   2407     2    0.632040485617    0.106921381121    0.022761650896    0.025000000000
  11900     1    0.660815494048    0.095862295255    0.008789886139    0.010000000000
   8739     1    0.696703005324    0.085473976085    0.009120435727    0.010000000000
   1370     2    0.035748187955    0.122828487292    0.022428252202    0.025000000000
   3324     1    0.067172082545    0.131344997904    0.009691178430    0.010000000000
   2688     2    0.122674874081    0.126053203115    0.021890503284    0.025000000000
   3293     1    0.165246445517    0.120282400057    0.008802669890    0.010000000000
    130     2    0.230691189466    0.111700608893    0.022690184613    0.025000000000
   4337     1    0.261499825158    0.121522746186    0.009647224475    0.010000000000
  12068     1    0.277416436663    0.108376541991    0.009859103523    0.010000000000
   5574     1    0.298919124609    0.109056982499    0.009747235154    0.010000000000
   1939     2    0.336185860455    0.132573652894    0.021390006969    0.025000000000
   7158     1    0.409619468826    0.123449610233    0.008495174595    0.010000000000
   2533     2    0.439308269320    0.130964101502    0.023590230220    0.025000000000
   2857     1    0.479295212397    0.110391812456    0.008389869459    0.010000000000
   5783     1    0.472040778589    0.123584892929    0.019742241028    0.010000000000
   8348     1    0.484400270466    0.131591037633    0.008253747873    0.010000000000
    597     2    0.510859400946    0.114253457931    0.020718062528    0.025000000000
  10778     1    0.544789420554    0.113966837152    0.016521723180    0.010000000000
   3057     1    0.555043945719    0.128717940013    0.009241708555    0.010000000000
   1739     2    0.583164281235    0.113572627308    0.022133915325    0.025000000000
   2572     2    0.684622493670    0.113845442359    0.024761139646    0.025000000000
   8434     1    0.713715804103    0.113641243293    0.008479298958    0.010000000000
  11493     1    0.740802306295    0.113961312226    0.009333564671    0.010000000000
   7380     1    0.007597445133    0.138573573780    0.025278815112    0.010000000000
   3924     1    0.025699768991    0.154353345592    0.010491813829    0.010000000000
  11005     1    0.089993246986    0.134874951038    0.010447234674    0.010000000000
  12494     1    0.094499103560    0.155072475792    0.010093886417    0.010000000000
   3747     1    0.148154185326    0.148022610187    0.011060743456    0.010000000000
   8267     1    0.135335977073    0.161033662894    0.020659746161    0.010000000000
   1459     2    0.181543359682    0.147618515722    0.021903545817    0.025000000000
    554     2    0.241685833888    0.159459242747    0.021541078367    0.025000000000
    853     2    0.287013435765    0.138903595431    0.024486931611    0.025000000000
  10400     1    0.383059429128    0.157792572816    0.008077173170    0.010000000000
  10571     1    0.468479084100    0.142286874895    0.009476007100    0.010000000000
   5900     1    0.487794871620    0.145161004378    0.020191373242    0.010000000000
   3106     1    0.492474158440    0.154092881426    0.006703272345    0.010000000000
   3894     1    0.537208716830    0.136690667009    0.011658440590    0.010000000000
  11043     1    0.548081252556    0.158587230851    0.009876643558    0.010000000000
   4772     1    0.558407286747    0.144477467683    0.019886984854    0.010000000000
    943     2    0.640945811197    0.155363384739    0.022503767552    0.025000000000
   6421     1    0.671211328998    0.143430282880    0.010778566604    0.010000000000
   7651     1    0.695435348486    0.140967251273    0.008594459409    0.010000000000
    572     2    0.726506045180    0.141720050128    0.023138197397    0.025000000000
   3054     1    0.011523143913    0.170914619300    0.010231784343    0.010000000000
  11139     1    0.029552694515    0.178070406998    0.014774836824    0.010000000000
     93     2    0.061886844490    0.163846475087    0.021629288836    0.025000000000
   5141     1    0.092046458228    0.177388301890    0.010110777459    0.010000000000
   8112     1    0.127755051962    0.176418662578    0.010176617601    0.010000000000
   4603     1    0.153313516040    0.171925027645    0.010053279990    0.010000000000
   9388     1    0.170574776581    0.182083939974    0.010479494235    0.010000000000
   8969     1    0.209349751042    0.165073963092    0.009789574380    0.010000000000
   2896     1    0.269738587025    0.179521801505    0.019498540378    0.010000000000
   6392     1    0.284807561812    0.170594949539    0.009767846475    0.010000000000
     74     2    0.358344958988    0.176906705442    0.022017733866    0.025000000000
   1446     2    0.409861989522    0.170977828305    0.023336967275    0.025000000000
  10423     1    0.438207317261    0.181127654763    0.008255960484    0.010000000000
   5429     1    0.439795362542    0.162032407472    0.009328474446    0.010000000000
    662     2    0.469519445451    0.174227728684    0.021680129353    0.025000000000
  10634     1    0.542070345325    0.177555402890    0.009266821756    0.010000000000
   3793     1    0.563410383126    0.184115767450    0.009005131998    0.010000000000
   5301     1    0.555036322334    0.174121107155    0.023076650422    0.010000000000
   2183     2    0.587770097226    0.162729025296    0.022411173512    0.025000000000
  11695     1    0.658535932435    0.182252049095    0.009278500617    0.010000000000
    847     2    0.688178598807    0.171158462431    0.022687044239    0.025000000000
   5863     1    0.721988038575    0.173126821396    0.009616863373    0.010000000000
   9668     1    0.740126191187    0.173412863005    0.018457784098    0.010000000000
  11199     1    0.011082189227    0.192715443353    0.010543647117    0.010000000000
   3110     1    0.015973792695    0.211649616125    0.016712755936    0.010000000000
   8567     1    0.049711072690    0.197128064684    0.011130991580    0.010000000000
   6786     1    0.035152289954    0.212340765427    0.010970860124    0.010000000000
  12186     1    0.074405487320    0.194337758894    0.010375958573    0.010000000000
  10784     1    0.091416007429    0.204321809216    0.010118912241    0.010000000000
     31     2    0.125395337349    0.210011738295    0.021287829497    0.025000000000
   8879     1    0.162759257037    0.200284010387    0.013477022551    0.010000000000
    799     2    0.200094759373    0.195581051757    0.023278155493    0.025000000000
   1297     2    0.247645474332    0.206883071582    0.021898204641    0.025000000000
   9456     1    0.279261889120    0.193879490542    0.009817464918    0.010000000000
   5239     1    0.288147798939    0.211711221192    0.010118173238    0.010000000000
   1782     2    0.311182802331    0.189158597083    0.023356576625    0.025000000000
  12820     1    0.337542006209    0.211459545849    0.024026644945    0.010000000000
   2948     1    0.408126069475    0.202980989026    0.009923161732    0.010000000000
    387     2    0.439051135672    0.211531101842    0.023248384251    0.025000000000
   7986     1    0.472911585067    0.208710435964    0.011611166243    0.010000000000
   7405     1    0.490616230300    0.204890381101    0.023026036114    0.010000000000
  10097     1    0.498921980239    0.190386883665    0.010457466403    0.010000000000
    759     2    0.530593937650    0.207388401875    0.021630842340    0.025000000000
    446     2    0.578943092604    0.210870303276    0.022549008879    0.025000000000
   1856     2    0.638244555655    0.206276632310    0.022836642178    0.025000000000
   5384     1    0.713804427527    0.191210731923    0.009566001730    0.010000000000
  11077     1    0.733343803501    0.189500751740    0.009796793588    0.010000000000
  10899     1    0.740061123678    0.207933943149    0.009988197652    0.010000000000
  11366     1    0.010747936537    0.232990239519    0.010616569698    0.010000000000
    450     2    0.066210683446    0.226697382543    0.020830770349    0.025000000000
    417     2    0.167198748339    0.234974264417    0.024467256933    0.025000000000
   5262     1    0.196422468807    0.227069118182    0.009163281489    0.010000000000
   3846     1    0.215644914104    0.223446801542    0.011819785837    0.010000000000
  10045     1    0.231465940642    0.232632706858    0.006950892551    0.010000000000
   3997     1    0.249758529982    0.238837999763    0.008810092767    0.010000000000
   9246     1    0.268156421807    0.231910101984    0.009040664174    0.010000000000
   3821     1    0.305355739830    0.221001380906    0.009669426065    0.010000000000
  11204     1    0.348337023172    0.219210461716    0.009717638235    0.010000000000
   2523     2    0.380675359302    0.220472429771    0.021305694561    0.025000000000
  10824     1    0.411945957807    0.226156181286    0.008813683521    0.010000000000
   9052     1    0.467893608269    0.229861989525    0.010493608180    0.010000000000
   4242     1    0.487849238141    0.223420056498    0.010066389525    0.010000000000
  11506     1    0.506438445897    0.231826564487    0.011616235375    0.010000000000
   8414     1    0.553438594839    0.230518584845    0.009517268108    0.010000000000
   6935     1    0.609449464162    0.217544986749    0.009198341653    0.010000000000
   3591     1    0.642992126726    0.237496313645    0.008879874288    0.010000000000
   8963     1    0.664470363676    0.224309383705    0.009452926520    0.010000000000
   1859     2    0.696761238921    0.218622314784    0.022350013417    0.025000000000
  11339     1    0.728473309016    0.223941558071    0.009572761645    0.010000000000
  11916     1    0.740387778995    0.234556277910    0.021082483322    0.010000000000
  10453     1    0.012478198748    0.255302570194    0.017440641025    0.010000000000
  10620     1    0.028889327414    0.243620164720    0.010251850890    0.010000000000
   8890     1    0.035210413070    0.260930955670    0.020659441974    0.010000000000
   7549     1    0.054181698428    0.258260828110    0.010264355421    0.010000000000
   5440     1    0.078016638406    0.264094352998    0.014539167685    0.010000000000
  11028     1    0.130063208279    0.242941313872    0.010560097506    0.010000000000
   2805     1    0.144316241464    0.256869596241    0.009672481781    0.010000000000
   5713     1    0.202495133295    0.246060726079    0.011090328982    0.010000000000
  12225     1    0.250182163681    0.261148783085    0.009253556689    0.010000000000
   3960     1    0.278315153085    0.255625016900    0.009832249389    0.010000000000
  11017     1    0.262683073543    0.248152333805    0.018702432731    0.010000000000
  10901     1    0.296335076715    0.248778192871    0.009694707052    0.010000000000
   2097     2    0.328179363191    0.244632937791    0.022068938763    0.025000000000
  11133     1    0.359288062581    0.243508910147    0.008195430094    0.010000000000
   4302     1    0.391119693194    0.249921746448    0.008236650406    0.010000000000
   1506     2    0.420850253725    0.256340433807    0.022464791523    0.025000000000
   9893     1    0.453481156177    0.243955164380    0.010485939570    0.010000000000
   3117     1    0.485358888733    0.243558926295    0.014295448815    0.010000000000
    206     2    0.521104991072    0.263787607528    0.020049380926    0.025000000000
   3262     1    0.550677802056    0.249903932242    0.009653125948    0.010000000000
  11360     1    0.566318392990    0.260949529466    0.014378614899    0.010000000000
   5387     1    0.578024681058    0.244068059893    0.011485313870    0.010000000000
   4494     1    0.585141761247    0.263690238969    0.009636320198    0.010000000000
   2612     2    0.613844580395    0.249636534060    0.021882458489    0.025000000000
   7288     1    0.683955627580    0.262652205840    0.010319686418    0.010000000000
   9672     1    0.701132552078    0.252388848126    0.009771809990    0.010000000000
   4506     1    0.721795643845    0.242578718854    0.015499005514    0.010000000000
  11603     1    0.740192247531    0.249304987365    0.009194063607    0.010000000000
   4398     1    0.022634993689    0.273014512335    0.009893629555    0.010000000000
   6809     1    0.050499799422    0.275581915109    0.020049964852    0.010000000000
  10601     1    0.104748451209    0.277962194422    0.009853635389    0.010000000000
    333     2    0.135667124552    0.287591055440    0.023366642544    0.025000000000
   9566     1    0.164616857293    0.286683362157    0.008181026340    0.010000000000
    157     2    0.194240440107    0.278850156377    0.023024736674    0.025000000000
  11036     1    0.225511779642    0.273058918410    0.009750446423    0.010000000000
   8964     1    0.243918013649    0.280188188934    0.009587239128    0.010000000000
   8850     1    0.285111434093    0.292849484327    0.008905998041    0.010000000000
  11221     1    0.292244625099    0.270283219085    0.009784343313    0.010000000000
    432     2    0.316634637343    0.291538863653    0.022392367817    0.025000000000
   7203     1    0.342088440851    0.272563342310    0.008763759618    0.010000000000
   5490     1    0.351201657139    0.288926432532    0.008784814289    0.010000000000
   8149     1    0.398155637445    0.280188812366    0.009711804352    0.010000000000
   3425     1    0.415652563564    0.288579175471    0.009005300893    0.010000000000
   3532     1    0.435742875423    0.284777610841    0.009861540675    0.010000000000
   1426     2    0.467151032292    0.274331141392    0.021371535037    0.025000000000
  10208     1    0.507503627343    0.293819769722    0.009461304749    0.010000000000
   9225     1    0.563310472545    0.279962890385    0.009575619588    0.010000000000
   3904     1    0.634679681295    0.275084922442    0.009800659371    0.010000000000
   5937     1    0.625035200959    0.292085779929    0.009849191610    0.010000000000
   8381     1    0.654085045990    0.271294647303    0.009592177517    0.010000000000
    949     2    0.675988575202    0.294274436997    0.023497831240    0.025000000000
    570     2    0.725855635422    0.277257997773    0.022461984911    0.025000000000
   4258     1    0.016752244040    0.298313449284    0.009898468159    0.010000000000
   4989     1    0.040894249381    0.299218550625    0.013711032661    0.010000000000
   9161     1    0.056060721169    0.321031399844    0.009775804057    0.010000000000
   1772     2    0.079079066264    0.298280950338    0.022906540799    0.025000000000
   8375     1    0.109642111816    0.306021834268    0.009405224665    0.010000000000
   4771     1    0.148092228632    0.316136453453    0.009121752159    0.010000000000
   2844     1    0.174280020631    0.301886245219    0.008391012636    0.010000000000
   1401     2    0.233879491704    0.311042103224    0.021720343592    0.025000000000
   3399     1    0.330923027038    0.320063716962    0.009405121202    0.010000000000
   9458     1    0.360211757929    0.305723589075    0.009203009436    0.010000000000
   3682     1    0.348209141256    0.318002271272    0.018251034125    0.010000000000
   3976     1    0.378433769410    0.297157959116    0.009969982059    0.010000000000
   8140     1    0.397840752105    0.299722527766    0.011647364405    0.010000000000
  12763     1    0.411356873250    0.314179567951    0.010229002931    0.010000000000
  10261     1    0.432710494062    0.313141034538    0.009033775793    0.010000000000
   8207     1    0.447320485239    0.300302769146    0.009241630968    0.010000000000
  12035     1    0.488730276572    0.298747831021    0.009910656614    0.010000000000
   6761     1    0.511860415143    0.311627289389    0.015493689104    0.010000000000
    921     2    0.545607879276    0.305888598075    0.024721802497    0.025000000000
     62     2    0.593023073480    0.294943221749    0.022915128030    0.025000000000
   3878     1    0.573491414016    0.320938480120    0.009735167731    0.010000000000
   4699     1    0.645640620909    0.296740942636    0.008339381591    0.010000000000
  12716     1    0.711919739646    0.306138306176    0.008826083915    0.010000000000
   3513     1    0.740693305839    0.305579374250    0.009459556241    0.010000000000
   2501     2    0.026113230328    0.333389203813    0.022244963595    0.025000000000
   1266     2    0.073576252663    0.347344549523    0.024717847966    0.025000000000
   3049     1    0.093871845546    0.325421478170    0.008588888503    0.010000000000
    293     2    0.122342953290    0.334735011988    0.023111104452    0.025000000000
   1900     2    0.175761073120    0.331433076934    0.022187414922    0.025000000000
  12406     1    0.207684041430    0.339377562944    0.009788536970    0.010000000000
  12493     1    0.253371784133    0.336366622810    0.008692376382    0.010000000000
      3     2    0.280240620226    0.323511156125    0.023149030427    0.025000000000
   4330     1    0.305963096406    0.343661291714    0.009794616718    0.010000000000
  11604     1    0.311882430118    0.324653416046    0.009591287308    0.010000000000
   2599     2    0.380853398679    0.328670380891    0.023980685131    0.025000000000
   2033     2    0.425146274421    0.344419691771    0.020859294030    0.025000000000
    948     2    0.468852283458    0.323560527321    0.022679469169    0.025000000000
   5439     1    0.501293956628    0.327186066196    0.009989869773    0.010000000000
  12717     1    0.510511880573    0.344963563375    0.006042997641    0.010000000000
   3082     1    0.491755026173    0.344503473206    0.009551219390    0.010000000000
   6649     1    0.522765320400    0.325708464645    0.008753095821    0.010000000000
  11524     1    0.538982854666    0.336833403139    0.009599483728    0.010000000000
   5661     1    0.561000600973    0.336927377026    0.010515654247    0.010000000000
   3966     1    0.549528824766    0.347921277991    0.021959345543    0.010000000000
   5624     1    0.584367166096    0.336759251756    0.015584197623    0.010000000000
  11986     1    0.600039325022    0.326278017876    0.009934939892    0.010000000000
   1784     2    0.632110289387    0.323866612912    0.022745420138    0.025000000000
   3410     1    0.664495749027    0.324730314129    0.009711258623    0.010000000000
   8799     1    0.696981055193    0.320776569540    0.010030603112    0.010000000000
   2026     2    0.726423006060    0.333905203466    0.023948938583    0.025000000000
   6415     1    0.008669230689    0.356673101581    0.007801830256    0.010000000000
   7348     1    0.008789617719    0.362676394062    0.025056532448    0.010000000000
   8643     1    0.033148140754    0.365713087032    0.010255515720    0.010000000000
   9582     1    0.102077361793    0.358020102728    0.008977895064    0.010000000000
   8631     1    0.133894343860    0.364738444837    0.009838633730    0.010000000000
   9477     1    0.152534329853    0.356079945983    0.010547964024    0.010000000000
   9746     1    0.209625558949    0.359878191255    0.016724743393    0.010000000000
   2537     2    0.243664238078    0.364815733424    0.022201287877    0.025000000000
   2290     2    0.290959346595    0.372898177942    0.021539135890    0.025000000000
   2730     2    0.338723756058    0.351568278382    0.021329425622    0.025000000000
   5859     1    0.371242754800    0.359996880149    0.010148122434    0.010000000000
   9935     1    0.392741909193    0.358909551284    0.009998735081    0.010000000000
  10412     1    0.401809956891    0.370696789524    0.023479575180    0.010000000000
      5     2    0.478689882278    0.372864404527    0.023296426167    0.025000000000
   3935     1    0.509071913330    0.364384724905    0.009124723514    0.010000000000
   4487     1    0.532725020434    0.362177817519    0.010329517970    0.010000000000
   9924     1    0.560411491937    0.363799466539    0.018207771446    0.010000000000
   8175     1    0.573933598134    0.352725915842    0.009826008336    0.010000000000
   2592     2    0.603422635286    0.366807137014    0.023141722871    0.025000000000
   3085     1    0.634232750070    0.363413007950    0.009283819396    0.010000000000
   4387     1    0.648301663021    0.351082962494    0.009179506517    0.010000000000
    957     2    0.679094323660    0.354136022912    0.022456463931    0.025000000000
   4036     1    0.710513678289    0.361460327803    0.009585686379    0.010000000000
  10553     1    0.723958638628    0.372697262965    0.018599916552    0.010000000000
   9172     1    0.740185634370    0.360794442530    0.009185238435    0.010000000000
   9878     1    0.054982394265    0.010714206658    0.039111611123    0.010000000000
  12447     1    0.074489330127    0.014785862929    0.047506206777    0.010000000000
  12812     1    0.085343889114    0.016225092946    0.029985698568    0.010000000000
  10155     1    0.163484150847    0.009806248005    0.028041677592    0.010000000000
  11577     1    0.178777163746    0.025222281728    0.030308427905    0.010000000000
   1928     2    0.213083562549    0.022015454574    0.037292799292    0.025000000000
   4578     1    0.241216974148    0.009084525644    0.025252038656    0.010000000000
   5832     1    0.250610814233    0.009207832309    0.041471460034    0.010000000000
   9632     1    0.381689315853    0.023625964557    0.041843165419    0.010000000000
  11867     1    0.436944202203    0.011949478175    0.041326609902    0.010000000000
   2807     1    0.453299012962    0.010484906092    0.030029062584    0.010000000000
   2541     2    0.483969912351    0.022542552597    0.046533843259    0.025000000000
   8240     1    0.557309247835    0.009145698101    0.048170685895    0.010000000000
   2632     2    0.582139720152    0.024566346062    0.029615489976    0.025000000000
   5184     1    0.623045129283    0.009119617301    0.040280994043    0.010000000000
   8449     1    0.681518476314    0.009920349657    0.025050346870    0.010000000000
   7868     1    0.704355790045    0.010023963196    0.029741359594    0.010000000000
  10355     1    0.717441037291    0.010540661453    0.049436449149    0.010000000000
   6666     1    0.740867764206    0.008719809618    0.028490576463    0.010000000000
   9957     1    0.041737442447    0.045767555518    0.048352619451    0.010000000000