LAMMPS data file - SE Layer in Cylinder (SI Units)
# Cylinder radius: 2.000000e-05 m

 10232  atoms

   1 atom types

 -2.000000000000000e-05   2.000000000000000e-05 xlo xhi
 -2.000000000000000e-05   2.000000000000000e-05 ylo yhi
  0.000000000000000e+00   2.500000000000000e-05 zlo zhi

Atoms # sphere

    1    1 1.2083333333e-06 5.0000000000e+03   1.199078961074661e-05   7.885805468791779e-06   1.812189456191745e-06
    2    1 1.2083333333e-06 5.0000000000e+03  -8.613744415776473e-06  -3.957235195403918e-06   5.016536730872290e-06
    3    1 1.2083333333e-06 5.0000000000e+03   8.420374637228718e-06   1.652799593419797e-06   1.428830628460650e-05
    4    1 1.2083333333e-06 5.0000000000e+03   1.245554629475287e-05  -1.278478467428083e-05   4.592679668572717e-06
    5    1 1.2083333333e-06 5.0000000000e+03  -9.304241175389045e-06  -1.306425318269368e-05   8.265521478960550e-06
    6    1 1.2083333333e-06 5.0000000000e+03  -4.760016598080224e-06   1.365566054061285e-05   1.813750930371167e-05
    7    1 1.2083333333e-06 5.0000000000e+03   8.464947533653147e-06  -1.196707775046827e-05   1.889549273489291e-05
    8    1 1.2083333333e-06 5.0000000000e+03   1.496576190754681e-05   4.688672324825614e-06   1.749414612075923e-05
    9    1 1.2083333333e-06 5.0000000000e+03  -8.821681281007365e-06  -5.795967539917750e-06   1.125888408472906e-05
   10    1 1.2083333333e-06 5.0000000000e+03   4.760184655606324e-06  -1.506577109493568e-05   1.671156694442505e-05
   11    1 1.2083333333e-06 5.0000000000e+03   1.021200344079118e-05  -1.181593168668654e-06   6.840530067248241e-06
   12    1 1.2083333333e-06 5.0000000000e+03   7.130869126478599e-07  -1.223634412183633e-05   1.206231329999702e-05
   13    1 1.2083333333e-06 5.0000000000e+03   1.553993978134516e-06   7.768001609883560e-06   1.656760762723595e-05
   14    1 1.2083333333e-06 5.0000000000e+03   1.117656220890573e-05   1.568058491321455e-05   1.146875988686805e-05
   15    1 1.2083333333e-06 5.0000000000e+03   1.692102308865446e-05   7.235517718408850e-06   1.832910305858330e-05
   16    1 1.2083333333e-06 5.0000000000e+03  -1.895804214909441e-05   1.342311173478750e-06   1.461011374966148e-05
   17    1 1.2083333333e-06 5.0000000000e+03   5.305753546739844e-06  -2.866151792956940e-06   1.664298354058245e-05
   18    1 1.2083333333e-06 5.0000000000e+03   1.590318646953030e-05   6.042083312364763e-06   1.605352383842783e-05
   19    1 1.2083333333e-06 5.0000000000e+03   1.576709345286371e-05  -3.336863763272517e-06   5.439941755797660e-06
   20    1 1.2083333333e-06 5.0000000000e+03  -1.802616120300167e-06   1.422847257481301e-05   4.081022193284583e-06
   21    1 1.2083333333e-06 5.0000000000e+03  -8.519392371228583e-06  -4.512427214053174e-06   1.141147405530861e-06
   22    1 1.2083333333e-06 5.0000000000e+03   8.567185184269704e-06   1.524087246406061e-05   1.901438499840617e-05
   23    1 1.2083333333e-06 5.0000000000e+03  -1.175368155901153e-05   1.191668507680514e-05   3.466412165590744e-06
   24    1 1.2083333333e-06 5.0000000000e+03  -6.659876756265469e-06   1.416451897090382e-05   1.888700117638458e-05
   25    1 1.2083333333e-06 5.0000000000e+03   9.966689821040429e-06  -1.662598276015363e-05   5.999957613029116e-06
   26    1 1.2083333333e-06 5.0000000000e+03   1.602425429874694e-05   6.361014064413129e-06   1.821138362070256e-05
   27    1 1.2083333333e-06 5.0000000000e+03  -1.415903365012187e-06  -9.233927124463277e-06   1.195667074536554e-05
   28    1 1.2083333333e-06 5.0000000000e+03  -1.305493979128094e-05  -1.336338606403371e-05   1.873600446415163e-05
   29    1 1.2083333333e-06 5.0000000000e+03   1.313634390903143e-07   9.168090067022826e-06   3.357605172570930e-06
   30    1 1.2083333333e-06 5.0000000000e+03   9.021082162685961e-06   8.526630595058314e-06   5.357182620070588e-06
   31    1 1.2083333333e-06 5.0000000000e+03   9.177667913767324e-06  -1.043974383839054e-05   2.677384288124090e-06
   32    1 1.2083333333e-06 5.0000000000e+03  -1.212390945341351e-05  -1.507469930734767e-05   1.724786815563439e-05
   33    1 1.2083333333e-06 5.0000000000e+03  -7.287120323328443e-06   1.335150431401026e-05   4.046667349774787e-06
   34    1 1.2083333333e-06 5.0000000000e+03   3.594989714257830e-06   1.791816951359357e-05   3.856279743730967e-06
   35    1 1.2083333333e-06 5.0000000000e+03  -1.337642726044780e-05  -8.874635897176543e-06   9.650808223335010e-06
   36    1 1.2083333333e-06 5.0000000000e+03   1.812193447058839e-05   4.258833119458635e-06   5.533171291196682e-06
   37    1 1.2083333333e-06 5.0000000000e+03  -1.760941038949069e-05  -4.631591551491592e-06   2.418469356749193e-06
   38    1 1.2083333333e-06 5.0000000000e+03   2.375401807209208e-06   1.679155874063999e-05   1.015362736532513e-05
   39    1 1.2083333333e-06 5.0000000000e+03  -4.984002305674949e-06  -1.289609234844146e-05   4.176223121172018e-06
   40    1 1.2083333333e-06 5.0000000000e+03  -5.249624129501175e-06   6.589115370879994e-06   1.665638236782607e-05
   41    1 1.2083333333e-06 5.0000000000e+03  -6.509882064788004e-06  -2.831291284572543e-06   1.232249480956793e-05
   42    1 1.2083333333e-06 5.0000000000e+03  -1.635322245510589e-06   5.577413346709690e-06   1.582993186742814e-05
   43    1 1.2083333333e-06 5.0000000000e+03  -1.890104696491849e-06   8.186980337628600e-06   9.590138866715683e-06
   44    1 1.2083333333e-06 5.0000000000e+03  -2.554911544217427e-06   1.532522813980695e-05   1.253778193088123e-05
   45    1 1.2083333333e-06 5.0000000000e+03  -2.655177831483292e-06  -1.396103872091636e-05   1.586704598570332e-05
   46    1 1.2083333333e-06 5.0000000000e+03  -1.724030213263431e-06  -9.777751478291032e-06   1.793058036515251e-05
   47    1 1.2083333333e-06 5.0000000000e+03  -6.779275832423796e-06   1.593685351531270e-05   3.870889733859547e-06
   48    1 1.2083333333e-06 5.0000000000e+03   9.524174886113294e-06   6.723843304173048e-06   1.571696081443047e-05
   49    1 1.2083333333e-06 5.0000000000e+03  -9.091573529108635e-06   9.771556536549278e-06   3.497984600465350e-06
   50    1 1.2083333333e-06 5.0000000000e+03  -1.776642671224537e-05   7.389097152034995e-08   2.995231050564124e-06
   51    1 1.2083333333e-06 5.0000000000e+03   2.501528023532913e-06  -3.510848768963438e-06   4.736213842601777e-06
   52    1 1.2083333333e-06 5.0000000000e+03  -9.188193458380763e-06   7.421165960521807e-06   1.112203082296480e-05
   53    1 1.2083333333e-06 5.0000000000e+03   1.416627180998824e-06  -3.937827637260648e-06   6.612078746728095e-06
   54    1 1.2083333333e-06 5.0000000000e+03  -7.858343071185184e-06   6.926096446650962e-06   8.545168225962498e-06
   55    1 1.2083333333e-06 5.0000000000e+03   6.218529767313843e-06  -1.787877606424877e-05   9.244514460836036e-06
   56    1 1.2083333333e-06 5.0000000000e+03  -9.730155979956385e-06  -1.213133302997904e-05   8.915527869997181e-06
   57    1 1.2083333333e-06 5.0000000000e+03  -5.434282145815871e-06  -2.499873168523583e-06   3.727378288988101e-06
   58    1 1.2083333333e-06 5.0000000000e+03  -1.800727880019489e-05  -5.396157682267170e-06   1.676536551458929e-05
   59    1 1.2083333333e-06 5.0000000000e+03  -1.845989382269248e-05  -2.207216679129551e-06   7.908282829795589e-06
   60    1 1.2083333333e-06 5.0000000000e+03   9.031953554415224e-07   1.492058071801172e-05   1.644260401194090e-05
   61    1 1.2083333333e-06 5.0000000000e+03  -1.013393787660297e-05  -6.367691146350186e-06   1.571158560551691e-05
   62    1 1.2083333333e-06 5.0000000000e+03   4.784578398543021e-06  -7.059853684950686e-06   1.205175719359907e-05
   63    1 1.2083333333e-06 5.0000000000e+03   3.624894786860244e-06   1.279160461587826e-05   2.977410906624410e-06
   64    1 1.2083333333e-06 5.0000000000e+03   1.965647481281674e-06  -1.192672904016766e-05   7.922521151727025e-06
   65    1 1.2083333333e-06 5.0000000000e+03  -4.918006687926473e-06   1.681986024713165e-05   1.328734044908641e-05
   66    1 1.2083333333e-06 5.0000000000e+03   1.036411328075958e-06  -8.417658577517174e-06   1.220655404488126e-05
   67    1 1.2083333333e-06 5.0000000000e+03   1.666321934134414e-06  -9.753994545211412e-06   2.588322033983665e-06
   68    1 1.2083333333e-06 5.0000000000e+03   6.238862481178877e-06  -9.211637872389230e-06   3.235623848905019e-06
   69    1 1.2083333333e-06 5.0000000000e+03   4.534854349909872e-06   4.567491014326607e-06   1.273917884056348e-06
   70    1 1.2083333333e-06 5.0000000000e+03   1.101486550643084e-05   1.337931209020613e-05   1.349416089738247e-05
   71    1 1.2083333333e-06 5.0000000000e+03  -9.391719444142538e-06  -8.096602335417307e-07   4.165863000556360e-06
   72    1 1.2083333333e-06 5.0000000000e+03   1.930571849024073e-05  -5.087529897121935e-07   1.508673479753444e-05
   73    1 1.2083333333e-06 5.0000000000e+03   3.755628536920657e-06  -4.085916596333059e-06   6.148930107873427e-06
   74    1 1.2083333333e-06 5.0000000000e+03  -3.155982065130425e-06   1.012281859366018e-05   1.148492941124003e-05
   75    1 1.2083333333e-06 5.0000000000e+03   5.896377687674426e-06   2.529664717712000e-06   1.756835883967178e-05
   76    1 1.2083333333e-06 5.0000000000e+03   6.813625548405776e-06   1.148943357805470e-05   6.368921773432996e-07
   77    1 1.2083333333e-06 5.0000000000e+03   1.790448704316055e-06   7.514804073653158e-06   3.168024164530227e-06
   78    1 1.2083333333e-06 5.0000000000e+03   4.399234091075508e-07   6.765811580145542e-07   8.434597196518612e-06
   79    1 1.2083333333e-06 5.0000000000e+03   1.785411357447517e-05  -3.618540041872646e-06   4.155888685245906e-06
   80    1 1.2083333333e-06 5.0000000000e+03  -1.584081291177247e-05   5.867672937627852e-06   1.893995253791602e-05
   81    1 1.2083333333e-06 5.0000000000e+03   3.767971694022511e-06   1.095658154614111e-05   4.636690478439267e-06
   82    1 1.2083333333e-06 5.0000000000e+03  -6.010770158896068e-06  -6.700254673573533e-06   5.992869533338192e-06
   83    1 1.2083333333e-06 5.0000000000e+03  -3.810593699899867e-06  -1.686199293258105e-05   4.394376979196210e-06
   84    1 1.2083333333e-06 5.0000000000e+03   4.662283476661711e-06  -1.152173697199093e-05   1.473281105606822e-06
   85    1 1.2083333333e-06 5.0000000000e+03  -5.806362102607067e-06   1.515446085456192e-05   1.922268356634496e-05
   86    1 1.2083333333e-06 5.0000000000e+03  -3.920480662950361e-06   1.623190652379847e-05   7.300550438657226e-06
   87    1 1.2083333333e-06 5.0000000000e+03  -1.485382909270231e-06  -1.137970455657191e-05   1.076834789212489e-06
   88    1 1.2083333333e-06 5.0000000000e+03   5.247784353432150e-06   1.046613596966786e-05   9.310417980571455e-06
   89    1 1.2083333333e-06 5.0000000000e+03  -8.449397107380714e-06   4.128448100549142e-06   1.164416056356060e-05
   90    1 1.2083333333e-06 5.0000000000e+03   1.342421661206295e-05  -1.349825935465322e-05   8.234551098906319e-06
   91    1 1.2083333333e-06 5.0000000000e+03   1.416686519398971e-05  -1.130991293234898e-05   1.473434013081966e-05
   92    1 1.2083333333e-06 5.0000000000e+03   2.656261535925465e-06   4.655436826158693e-06   2.169919327208585e-06
   93    1 1.2083333333e-06 5.0000000000e+03  -2.636979029647544e-06  -9.780106205936293e-06   6.467181446184781e-06
   94    1 1.2083333333e-06 5.0000000000e+03  -1.929285038780299e-06  -7.198823801090670e-06   5.328787543691089e-06
   95    1 1.2083333333e-06 5.0000000000e+03   1.097774608521160e-06  -1.654759571798574e-05   1.594243812450675e-05
   96    1 1.2083333333e-06 5.0000000000e+03   9.494453189236205e-06  -1.119369465836542e-05   5.784157522950217e-06
   97    1 1.2083333333e-06 5.0000000000e+03   3.033725779538263e-06  -1.780851838154307e-05   1.182717671226723e-05
   98    1 1.2083333333e-06 5.0000000000e+03   6.488764581765163e-06  -1.666906876704264e-05   6.537945232677876e-06
   99    1 1.2083333333e-06 5.0000000000e+03   1.432537338872766e-05  -9.147769925461987e-06   1.690338334659825e-05
  100    1 1.2083333333e-06 5.0000000000e+03  -1.175968670969385e-05   1.063255890659090e-05   4.876364306173060e-06
  101    1 1.2083333333e-06 5.0000000000e+03  -1.293618140440059e-05   1.947038402072567e-06   8.968893546355323e-06
  102    1 1.2083333333e-06 5.0000000000e+03  -1.509834941444134e-05   9.282851856210078e-06   1.130551660574140e-05
  103    1 1.2083333333e-06 5.0000000000e+03  -3.236961103472929e-06   1.725134216495226e-05   1.405803569792001e-05
  104    1 1.2083333333e-06 5.0000000000e+03  -7.921317906545380e-06  -3.690856593578776e-06   6.610440693170541e-06
  105    1 1.2083333333e-06 5.0000000000e+03  -3.505049060568913e-06  -4.166765819418808e-06   9.401565456508296e-06
  106    1 1.2083333333e-06 5.0000000000e+03   9.154193678150104e-06  -2.228648995108297e-06   3.465004245062820e-06
  107    1 1.2083333333e-06 5.0000000000e+03   1.255583535728001e-05   8.734681726799738e-06   3.635250052128812e-06
  108    1 1.2083333333e-06 5.0000000000e+03  -3.270960890273650e-06   3.657890513397296e-06   8.095350747195138e-06
  109    1 1.2083333333e-06 5.0000000000e+03   1.363417206334790e-05   1.136632365823874e-05   1.065605134195008e-05
  110    1 1.2083333333e-06 5.0000000000e+03   3.782922342191617e-07  -4.143602430097611e-06   9.975553675815885e-06
  111    1 1.2083333333e-06 5.0000000000e+03  -4.904085410960206e-06   1.038287671343383e-05   1.475438883611792e-05
  112    1 1.2083333333e-06 5.0000000000e+03  -4.632994920572032e-06  -3.641484487433184e-06   1.001962739479853e-05
  113    1 1.2083333333e-06 5.0000000000e+03  -4.891067696877922e-06  -1.024859270137500e-05   1.117772531292118e-05
  114    1 1.2083333333e-06 5.0000000000e+03  -7.141267947110670e-06   1.360701405033030e-05   2.596780366057112e-06
  115    1 1.2083333333e-06 5.0000000000e+03   4.690058435035745e-06  -1.410136736269068e-05   1.466755713828343e-05
  116    1 1.2083333333e-06 5.0000000000e+03   5.005568252404390e-06  -4.310919059283573e-06   6.881696062465047e-06
  117    1 1.2083333333e-06 5.0000000000e+03  -1.569753651860805e-05   1.063222834928000e-05   3.086716640643378e-06
  118    1 1.2083333333e-06 5.0000000000e+03   1.036393761389010e-05  -1.565281366838065e-05   1.164218890669759e-05
  119    1 1.2083333333e-06 5.0000000000e+03   4.114923631090146e-06   3.695673828751678e-06   7.569379376302973e-06
  120    1 1.2083333333e-06 5.0000000000e+03  -1.231461784157522e-05   4.597750539282059e-06   1.474919306600172e-05
  121    1 1.2083333333e-06 5.0000000000e+03   5.290586998598947e-06  -1.368904027413473e-05   1.863638346946077e-05
  122    1 1.2083333333e-06 5.0000000000e+03   3.100332858092937e-06   1.116928186457124e-05   1.690501793605700e-05
  123    1 1.2083333333e-06 5.0000000000e+03  -9.737700984620773e-06   2.834666459498517e-06   1.445127276991131e-05
  124    1 1.2083333333e-06 5.0000000000e+03   3.340481955796367e-06  -6.637584848787669e-08   1.289311053472267e-05
  125    1 1.2083333333e-06 5.0000000000e+03  -2.888398484627144e-06   9.567522347454587e-07   3.953016104278992e-06
  126    1 1.2083333333e-06 5.0000000000e+03   7.340161629061727e-06   1.671527177716767e-07   1.701936544653942e-05
  127    1 1.2083333333e-06 5.0000000000e+03  -1.255484868653706e-05   1.368090162554335e-05   1.367724160064114e-05
  128    1 1.2083333333e-06 5.0000000000e+03  -4.419080191166395e-06   6.992529533460726e-06   1.142492571788628e-06
  129    1 1.2083333333e-06 5.0000000000e+03   1.229175378018213e-07   1.111888956175764e-05   2.613875793129405e-06
  130    1 1.2083333333e-06 5.0000000000e+03  -9.091619934992103e-06  -4.970494405825102e-06   1.898881699765811e-05
  131    1 1.2083333333e-06 5.0000000000e+03  -1.237651348238689e-05  -6.509305934761438e-06   1.576092061513627e-05
  132    1 1.2083333333e-06 5.0000000000e+03   8.232783158848560e-06   1.555351861834806e-05   1.661714450031991e-05
  133    1 1.2083333333e-06 5.0000000000e+03  -1.195326066906828e-05  -1.216787439127393e-05   1.558165975817563e-05
  134    1 1.2083333333e-06 5.0000000000e+03   1.592953337559006e-05   9.364987215827417e-06   1.350326708159025e-05
  135    1 1.2083333333e-06 5.0000000000e+03  -1.151354167105475e-05  -7.710161690959921e-06   3.609082162359392e-06
  136    1 1.2083333333e-06 5.0000000000e+03   4.141460750398670e-06  -1.746637241442901e-05   6.632616863367722e-06
  137    1 1.2083333333e-06 5.0000000000e+03  -5.438663824332226e-06  -1.220965300315043e-05   3.266671333755203e-06
  138    1 1.2083333333e-06 5.0000000000e+03   6.734049862594648e-06  -1.608822807117463e-05   1.409435011933303e-05
  139    1 1.2083333333e-06 5.0000000000e+03   8.002485838778026e-06  -2.184292466985739e-06   2.949838216435231e-06
  140    1 1.2083333333e-06 5.0000000000e+03  -8.747537995377086e-07   1.128057323358185e-05   6.097296583894502e-06
  141    1 1.2083333333e-06 5.0000000000e+03  -3.280107205485703e-06  -3.482210300631555e-06   1.599411848786514e-05
  142    1 1.2083333333e-06 5.0000000000e+03  -1.193876917195882e-05   6.376136563915059e-06   1.659116783128797e-05
  143    1 1.2083333333e-06 5.0000000000e+03   1.107878492656116e-05   1.514559141160143e-06   3.136163162819031e-06
  144    1 1.2083333333e-06 5.0000000000e+03  -8.120265183431612e-06  -1.670912206016079e-05   6.658275403626550e-06
  145    1 1.2083333333e-06 5.0000000000e+03   5.289327955365829e-06  -1.024977721598524e-05   1.261838928474761e-05
  146    1 1.2083333333e-06 5.0000000000e+03   4.010432069347734e-06  -6.369883192389433e-06   2.608688338554899e-06
  147    1 1.2083333333e-06 5.0000000000e+03  -1.314838205375106e-05   1.239744639072686e-05   1.527910016532129e-05
  148    1 1.2083333333e-06 5.0000000000e+03  -1.278790481174115e-05  -4.734221257881639e-06   1.784382612015330e-05
  149    1 1.2083333333e-06 5.0000000000e+03  -5.389123223273900e-06  -1.593719489796588e-05   1.528004358851339e-05
  150    1 1.2083333333e-06 5.0000000000e+03  -1.269161865074369e-05   1.808699141596642e-06   2.863494896934619e-06
  151    1 1.2083333333e-06 5.0000000000e+03  -7.057858929233655e-06   2.727490705486494e-07   1.405559480276667e-05
  152    1 1.2083333333e-06 5.0000000000e+03  -1.640521881211086e-06  -1.018907119759785e-06   1.094493383271644e-05
  153    1 1.2083333333e-06 5.0000000000e+03  -1.121900661225261e-05  -1.512407339230917e-05   3.754433986680709e-06
  154    1 1.2083333333e-06 5.0000000000e+03   2.109481373695461e-06   4.954435800751595e-06   1.607553728665281e-05
  155    1 1.2083333333e-06 5.0000000000e+03   2.982810219353710e-06  -1.421337321421526e-05   2.994108925729106e-06
  156    1 1.2083333333e-06 5.0000000000e+03  -1.157337714277068e-05  -1.184090958917349e-05   1.030817752817560e-05
  157    1 1.2083333333e-06 5.0000000000e+03  -1.148976325982903e-05  -1.716532513435579e-06   1.238623562708493e-05
  158    1 1.2083333333e-06 5.0000000000e+03   2.627534160263390e-06  -1.525962811238182e-05   1.759467008596181e-05
  159    1 1.2083333333e-06 5.0000000000e+03  -1.384490824374222e-05  -1.287951361374600e-05   1.636758109413083e-05
  160    1 1.2083333333e-06 5.0000000000e+03   4.140015149913769e-06   7.980873289683291e-06   2.632863734205540e-06
  161    1 1.2083333333e-06 5.0000000000e+03  -1.151841006579955e-06   4.305333373671887e-06   6.651330128890422e-06
  162    1 1.2083333333e-06 5.0000000000e+03  -1.228652895180096e-05  -9.156332868805816e-06   1.355116778093793e-05
  163    1 1.2083333333e-06 5.0000000000e+03   1.717200972947616e-05   2.874912700762579e-06   9.410872288212889e-06
  164    1 1.2083333333e-06 5.0000000000e+03   2.297535859208604e-06  -2.173833217091516e-06   1.912004379191432e-05
  165    1 1.2083333333e-06 5.0000000000e+03  -1.374327409349002e-05  -8.621927209504289e-06   1.893754029035586e-05
  166    1 1.2083333333e-06 5.0000000000e+03  -7.019677441745735e-06  -5.470877563490377e-06   4.979549556306434e-06
  167    1 1.2083333333e-06 5.0000000000e+03  -8.446045920888189e-06  -3.956088023290482e-06   9.508861308427598e-06
  168    1 1.2083333333e-06 5.0000000000e+03   1.069357299509478e-05   1.142213532419273e-05   2.785659085826497e-06
  169    1 1.2083333333e-06 5.0000000000e+03  -1.426839718633443e-05  -3.410514699956238e-06   1.221164532365205e-06
  170    1 1.2083333333e-06 5.0000000000e+03   8.841269898490485e-06  -8.008051467018717e-06   6.656618920810041e-06
  171    1 1.2083333333e-06 5.0000000000e+03  -4.132282536479691e-06   1.075689455700604e-05   6.473232484196681e-06
  172    1 1.2083333333e-06 5.0000000000e+03   1.126326089030627e-05   1.538670138000601e-05   1.840970381084489e-05
  173    1 1.2083333333e-06 5.0000000000e+03   7.242672926406680e-06  -1.608506533344442e-05   3.142433387802104e-06
  174    1 1.2083333333e-06 5.0000000000e+03  -1.780418636916705e-05  -7.059405555581531e-06   3.007884722203589e-06
  175    1 1.2083333333e-06 5.0000000000e+03  -9.733838357712963e-06  -1.514136613790612e-05   4.387021384158475e-06
  176    1 1.2083333333e-06 5.0000000000e+03  -1.626086488323599e-05   6.961763473753276e-06   9.625766252984158e-06
  177    1 1.2083333333e-06 5.0000000000e+03   3.895477710751009e-06   9.805302860454782e-06   1.252769172802617e-05
  178    1 1.2083333333e-06 5.0000000000e+03  -2.282798457181527e-07   4.932180765622152e-06   8.706360390433018e-06
  179    1 1.2083333333e-06 5.0000000000e+03   1.077912252683039e-05  -1.246530567689138e-05   9.869001904762831e-06
  180    1 1.2083333333e-06 5.0000000000e+03   4.634919428706800e-07  -1.242048398308090e-06   1.797208504235594e-05
  181    1 1.2083333333e-06 5.0000000000e+03  -7.181359062630427e-06   1.293433209159954e-06   8.916959421389514e-06
  182    1 1.2083333333e-06 5.0000000000e+03  -1.098728151863435e-05   1.099572904960422e-05   1.444693536766502e-05
  183    1 1.2083333333e-06 5.0000000000e+03  -1.115524409198603e-05   2.643420823639584e-06   8.491400748510491e-06
  184    1 1.2083333333e-06 5.0000000000e+03   1.206513000360909e-05   1.274078253730503e-06   9.428242219890863e-06
  185    1 1.2083333333e-06 5.0000000000e+03  -1.622006448490925e-05   8.033013712872364e-06   1.280663472034497e-05
  186    1 1.2083333333e-06 5.0000000000e+03  -1.019080151771360e-05   9.899795070245463e-06   1.258772943140457e-05
  187    1 1.2083333333e-06 5.0000000000e+03  -2.903830022654722e-06  -1.601495319801494e-05   2.796722482161850e-06
  188    1 1.2083333333e-06 5.0000000000e+03  -2.941465116700672e-06   1.712688427035223e-05   7.960268996330323e-07
  189    1 1.2083333333e-06 5.0000000000e+03   8.548227643037387e-06  -1.519568247754545e-05   1.587467782572240e-05
  190    1 1.2083333333e-06 5.0000000000e+03   5.288967980715395e-06  -1.072160246687966e-05   1.417242661195547e-05
  191    1 1.2083333333e-06 5.0000000000e+03   7.719485652633155e-06   1.224344500227480e-05   9.514268191615796e-06
  192    1 1.2083333333e-06 5.0000000000e+03   7.495783579654525e-06   7.606050038218099e-06   9.044357952489637e-06
  193    1 1.2083333333e-06 5.0000000000e+03  -1.361821182758529e-05  -1.126525114542084e-05   4.882029059451472e-06
  194    1 1.2083333333e-06 5.0000000000e+03  -1.521821835999280e-05  -3.967953002663485e-06   1.622962007918336e-05
  195    1 1.2083333333e-06 5.0000000000e+03   9.481378950682380e-06   1.123375636256241e-05   7.100362573455172e-07
  196    1 1.2083333333e-06 5.0000000000e+03  -7.238106994551196e-06  -8.322510210848824e-06   1.220975588241357e-05
  197    1 1.2083333333e-06 5.0000000000e+03  -7.363958790845463e-06   7.731739102249587e-07   1.112339267534491e-05
  198    1 1.2083333333e-06 5.0000000000e+03   5.627660763420991e-07   1.381444866915062e-05   1.108328017281061e-05
  199    1 1.2083333333e-06 5.0000000000e+03  -5.723265961959776e-06   1.418712732729440e-05   6.048665524698072e-06
  200    1 1.2083333333e-06 5.0000000000e+03  -1.390086297280176e-05  -6.265827669443625e-06   1.595645763490645e-05
  201    1 1.2083333333e-06 5.0000000000e+03  -9.741489737578575e-06  -4.625746552115592e-06   1.375449042902481e-05
  202    1 1.2083333333e-06 5.0000000000e+03  -9.232771302882886e-06  -9.601121728004546e-07   1.720127437576538e-05
  203    1 1.2083333333e-06 5.0000000000e+03  -7.884951140384637e-07  -4.988267943426495e-06   1.317478093175606e-05
  204    1 1.2083333333e-06 5.0000000000e+03  -1.408858917093904e-05  -4.905369928084402e-06   1.346504569579337e-05
  205    1 1.2083333333e-06 5.0000000000e+03   4.243726496858713e-06  -1.718513978972524e-05   9.105848386830109e-06
  206    1 1.2083333333e-06 5.0000000000e+03   4.722049017389082e-06   1.555174221212906e-05   1.708867526146998e-05
  207    1 1.2083333333e-06 5.0000000000e+03  -7.507865007659649e-06  -5.896550245063157e-06   1.671273462452426e-05
  208    1 1.2083333333e-06 5.0000000000e+03  -6.569036674434447e-06  -1.316340977684385e-05   1.740613168512164e-05
  209    1 1.2083333333e-06 5.0000000000e+03   1.373591557023608e-05   1.235109735599878e-05   4.435077544535283e-06
  210    1 1.2083333333e-06 5.0000000000e+03  -1.478356692288285e-05   5.250002358580178e-06   7.019471334325419e-06
  211    1 1.2083333333e-06 5.0000000000e+03   1.445025844536712e-06   1.238765455611085e-05   1.385432892369662e-05
  212    1 1.2083333333e-06 5.0000000000e+03  -2.627324069436636e-06   8.878218538862820e-06   1.604509755113730e-05
  213    1 1.2083333333e-06 5.0000000000e+03   2.803660882891015e-06  -1.367133081136248e-05   1.825130552296286e-05
  214    1 1.2083333333e-06 5.0000000000e+03  -7.072049344104066e-06   6.397682739754916e-06   1.892761801736614e-05
  215    1 1.2083333333e-06 5.0000000000e+03  -1.432233941964879e-05  -1.549277177095667e-06   1.559129723175151e-05
  216    1 1.2083333333e-06 5.0000000000e+03   4.765464671558816e-06  -3.530518697043962e-06   1.793883353922526e-06
  217    1 1.2083333333e-06 5.0000000000e+03   2.659286500205735e-06   1.460477632871350e-06   6.621680386326261e-06
  218    1 1.2083333333e-06 5.0000000000e+03  -3.887846078823988e-06  -3.599493642017555e-06   4.446738455147981e-06
  219    1 1.2083333333e-06 5.0000000000e+03  -1.186943314319179e-05  -2.166954480302923e-06   1.928965747916574e-05
  220    1 1.2083333333e-06 5.0000000000e+03  -1.388434634897684e-05  -1.451563904198627e-06   1.237856701821878e-05
  221    1 1.2083333333e-06 5.0000000000e+03   4.240272653553088e-06  -1.664208211095107e-05   1.535862451179030e-05
  222    1 1.2083333333e-06 5.0000000000e+03  -3.244106681033431e-07  -5.372676128768667e-06   1.905228175330352e-05
  223    1 1.2083333333e-06 5.0000000000e+03  -8.568525026163522e-06   4.579160629341924e-06   1.027012440541893e-05
  224    1 1.2083333333e-06 5.0000000000e+03  -1.342677488713582e-05  -2.843480730481465e-06   1.172295380681357e-05
  225    1 1.2083333333e-06 5.0000000000e+03  -7.653189445876447e-06   1.607609166449074e-05   9.961935975924885e-06
  226    1 1.2083333333e-06 5.0000000000e+03   1.032503457703310e-05   1.232647362656379e-05   8.328823475212436e-06
  227    1 1.2083333333e-06 5.0000000000e+03   5.286556669985067e-06   4.892775274223565e-06   1.711560643922397e-05
  228    1 1.2083333333e-06 5.0000000000e+03   6.443935307811024e-06   6.864074803458001e-06   9.248816625223752e-06
  229    1 1.2083333333e-06 5.0000000000e+03   5.583371360386256e-06   1.213497214972396e-05   1.860899347337384e-05
  230    1 1.2083333333e-06 5.0000000000e+03  -7.650438098124821e-07  -1.133248724223036e-05   6.810661995753510e-06
  231    1 1.2083333333e-06 5.0000000000e+03  -1.330403668709583e-06  -1.139113541552287e-05   2.520151392622608e-06
  232    1 1.2083333333e-06 5.0000000000e+03  -7.880552508433647e-06   3.577893781143571e-06   2.079957054039362e-06
  233    1 1.2083333333e-06 5.0000000000e+03  -1.313236703061019e-06   4.960387186499290e-06   1.472672588259868e-05
  234    1 1.2083333333e-06 5.0000000000e+03   1.806127778701679e-05   5.582136843888911e-06   5.200988471136984e-06
  235    1 1.2083333333e-06 5.0000000000e+03   8.084434318242387e-06   4.482052471335812e-06   1.741079850100816e-05
  236    1 1.2083333333e-06 5.0000000000e+03  -1.935352161526957e-06   6.509716003578838e-06   1.774322935414998e-05
  237    1 1.2083333333e-06 5.0000000000e+03   1.430280824430143e-05   1.700328563224077e-06   4.729499411281691e-06
  238    1 1.2083333333e-06 5.0000000000e+03   6.858929629590336e-06  -6.294754101521187e-06   1.134917876984467e-06
  239    1 1.2083333333e-06 5.0000000000e+03  -8.385891118767991e-06   9.450157140624070e-06   1.725859420049673e-05
  240    1 1.2083333333e-06 5.0000000000e+03  -8.309427673601189e-06   6.150300267964857e-06   1.569273622748276e-05
  241    1 1.2083333333e-06 5.0000000000e+03  -6.408706731495176e-07  -1.182109702546387e-05   1.515188766591744e-05
  242    1 1.2083333333e-06 5.0000000000e+03   6.597238420343477e-07  -4.114939722611543e-06   1.382834435754335e-05
  243    1 1.2083333333e-06 5.0000000000e+03   1.070118737160594e-05   9.149972674417840e-06   1.999529062967538e-06
  244    1 1.2083333333e-06 5.0000000000e+03  -4.346678270042538e-06   1.836005062640492e-05   1.586849505072372e-05
  245    1 1.2083333333e-06 5.0000000000e+03  -3.408455084664364e-06  -1.215788503642385e-05   1.437504504903107e-05
  246    1 1.2083333333e-06 5.0000000000e+03   5.688515283436232e-06  -1.230378792989533e-05   1.227786086446962e-05
  247    1 1.2083333333e-06 5.0000000000e+03   6.004625303316997e-06   1.226513784603363e-05   1.672796988450949e-05
  248    1 1.2083333333e-06 5.0000000000e+03  -2.209625621856754e-06   1.329351395828008e-05   1.360599930246434e-05
  249    1 1.2083333333e-06 5.0000000000e+03   8.735221635955486e-06   8.358963708978332e-06   8.496201466377887e-06
  250    1 1.2083333333e-06 5.0000000000e+03   8.512796249333830e-06   1.176850768127038e-05   6.696028659179272e-06
  251    1 1.2083333333e-06 5.0000000000e+03  -1.581179486913327e-05  -7.317296388855188e-06   1.574730495395251e-05
  252    1 1.2083333333e-06 5.0000000000e+03  -7.379462296061715e-06   1.731464333948947e-05   5.111878738222167e-06
  253    1 1.2083333333e-06 5.0000000000e+03  -7.293966540154682e-07  -1.561512050541685e-05   1.578690472339560e-05