LIGGGHTS (Version LIGGGHTS-PUBLIC 3.8.0, compiled 2018-08-29-09:25:30 by howietu, git commit 28301df8853491784b1d8b90533ea89b8c6af1e8)
#------------------General Settings for Granular Systems--------------------------------------------
atom_style	granular
atom_modify	map           array
boundary	f f f
newton		off
communicate	single        vel       yes
units		si
neighbor        0.0002        bin
neigh_modify    delay         0
echo            both
variable        dt            equal     1e-5
variable        nStepsRun     equal     1.0/${dt}
variable        nStepsRun     equal     1.0/1e-05
variable        writeOutEvery equal     0.2/${dt}
variable        writeOutEvery equal     0.2/1e-05
variable        thermofreq    equal     0.01/${dt}
variable        thermofreq    equal     0.01/1e-05
timestep        ${dt}
timestep        1e-05

#--------------------------Box Information---------------------------------------------------------
variable       skfstl        equal     1/5000
variable       x1y1          equal    -1*${skfstl}*2500
variable       x1y1          equal    -1*0.0002*2500
variable       x2y2          equal     1*${skfstl}*2500
variable       x2y2          equal     1*0.0002*2500
variable       z1            equal    -0.5*${skfstl}*2500
variable       z1            equal    -0.5*0.0002*2500
variable       z2            equal     1*${skfstl}*2500
variable       z2            equal     1*0.0002*2500

#--------------------------Model Geometry---------------------------------------------------------
variable        r0            equal     0.02
variable        grwth         equal     0.01                   # Overall growth of each direction
variable        grwFq         equal     1000                    # The growth frequncy, every # of steps
variable        grwNs         equal     20                      # The total number of growth step
variable        grwRt         equal     ${grwth}/${grwNs}       # Growth rate at each growth step
variable        grwRt         equal     0.01/${grwNs}       
variable        grwRt         equal     0.01/20       

#--------------------------Material Information---------------------------------------------------------
variable        cf_pp         equal     1.0
variable        cf_pw         equal     0.2
variable        cf_ww         equal     0.2
variable        cof_pp        equal     0.2
variable        cof_pw        equal     0.1
variable        cof_ww        equal     0.1
variable        corf_pp       equal     0.
variable        corf_pw       equal     0.2
variable        corf_ww       equal     0.2
variable        Yp            equal     1e+7
variable        Yw            equal     5.1e+6

#---------------------Generate Box----------------------------------------
#region          reg block ${x1y1} ${x2y2} ${x1y1} ${x2y2} ${z1} ${z2}  units box
#create_box      2 reg
read_restart    cohesion.restart
  orthogonal box = (-0.5 -0.5 -0.25) to (0.5 0.5 0.5)
  4 by 5 by 4 MPI processor grid
  1174 atoms

#---------------------Assign Material Properties to particle and wall----------------------------------------
fix 		m1 all property/global youngsModulus peratomtype ${Yp} ${Yw}
fix 		m1 all property/global youngsModulus peratomtype 10000000 ${Yw}
fix 		m1 all property/global youngsModulus peratomtype 10000000 5100000
fix 		m2 all property/global poissonsRatio peratomtype 0.3 0.3
fix 		m3 all property/global coefficientRestitution peratomtypepair 2 ${cf_pp} ${cf_pw} ${cf_pw} ${cf_ww}
fix 		m3 all property/global coefficientRestitution peratomtypepair 2 1 ${cf_pw} ${cf_pw} ${cf_ww}
fix 		m3 all property/global coefficientRestitution peratomtypepair 2 1 0.2 ${cf_pw} ${cf_ww}
fix 		m3 all property/global coefficientRestitution peratomtypepair 2 1 0.2 0.2 ${cf_ww}
fix 		m3 all property/global coefficientRestitution peratomtypepair 2 1 0.2 0.2 0.2
fix             m4 all property/global coefficientFriction peratomtypepair 2 ${cof_pp} ${cof_pw} ${cof_pw} ${cof_ww}
fix             m4 all property/global coefficientFriction peratomtypepair 2 0.2 ${cof_pw} ${cof_pw} ${cof_ww}
fix             m4 all property/global coefficientFriction peratomtypepair 2 0.2 0.1 ${cof_pw} ${cof_ww}
fix             m4 all property/global coefficientFriction peratomtypepair 2 0.2 0.1 0.1 ${cof_ww}
fix             m4 all property/global coefficientFriction peratomtypepair 2 0.2 0.1 0.1 0.1
fix             m5 all property/global coefficientRollingFriction peratomtypepair 2 ${corf_pp} ${corf_pw} ${corf_pw} ${corf_ww}
fix             m5 all property/global coefficientRollingFriction peratomtypepair 2 0 ${corf_pw} ${corf_pw} ${corf_ww}
fix             m5 all property/global coefficientRollingFriction peratomtypepair 2 0 0.2 ${corf_pw} ${corf_ww}
fix             m5 all property/global coefficientRollingFriction peratomtypepair 2 0 0.2 0.2 ${corf_ww}
fix             m5 all property/global coefficientRollingFriction peratomtypepair 2 0 0.2 0.2 0.2
fix             m6 all property/global cohesionEnergyDensity peratomtypepair 2 900000 0 0 0

#Define pair style
pair_style gran model hertz tangential history cohesion sjkr #Hertzian with cohesion
pair_coeff	* *

#fix Bsphere all mesh/surface file sphere.stl type 2 scale 0.0125
#fix wall all wall/gran model hertz tangential history rolling_friction epsd2 mesh n_meshes 1 meshes Bsphere

fix xwalls1 all wall/gran model hertz tangential history primitive type 1 xplane ${x1y1}
fix xwalls1 all wall/gran model hertz tangential history primitive type 1 xplane -0.5
Resetting global state of Fix history_xwalls1 Style property/atom from restart file info
Resetting per-atom state of Fix history_xwalls1 Style property/atom from restart file info
fix xwalls2 all wall/gran model hertz tangential history primitive type 1 xplane ${x2y2}
fix xwalls2 all wall/gran model hertz tangential history primitive type 1 xplane 0.5
Resetting global state of Fix history_xwalls2 Style property/atom from restart file info
Resetting per-atom state of Fix history_xwalls2 Style property/atom from restart file info
fix ywalls1 all wall/gran model hertz tangential history primitive type 1 yplane ${x1y1}
fix ywalls1 all wall/gran model hertz tangential history primitive type 1 yplane -0.5
Resetting global state of Fix history_ywalls1 Style property/atom from restart file info
Resetting per-atom state of Fix history_ywalls1 Style property/atom from restart file info
fix ywalls2 all wall/gran model hertz tangential history primitive type 1 yplane ${x2y2}
fix ywalls2 all wall/gran model hertz tangential history primitive type 1 yplane 0.5
Resetting global state of Fix history_ywalls2 Style property/atom from restart file info
Resetting per-atom state of Fix history_ywalls2 Style property/atom from restart file info
fix zwalls2 all wall/gran model hertz tangential history primitive type 1 zplane ${z1}
fix zwalls2 all wall/gran model hertz tangential history primitive type 1 zplane -0.25
Resetting global state of Fix history_zwalls2 Style property/atom from restart file info
Resetting per-atom state of Fix history_zwalls2 Style property/atom from restart file info

#fix pts1 all particletemplate/sphere 15485863 atom_type 1 density constant 2500 radius constant ${r0}
#fix pdd1 all particledistribution/discrete 86028157 1 pts1 1

#fix ins_mesh all mesh/surface/planar file ins_face.stl heal auto_remove_duplicates type 2 scale 0.0125
#fix ins all insert/stream seed 86028121 distributiontemplate pdd1 #                maxattempt 200 nparticles 1200 particlerate 180 overlapcheck yes all_in yes vel constant 0 0 -2.0 #                insertion_face ins_mesh extrude_length 0.2

#apply nve integration to all particles
fix		integr all nve/sphere
fix		gravi all  gravity 9.81 vector 0.0 0.0 -1.0

#------------------------Output Settings------------------------------------------------------
# Output to screen
compute        ker   all   erotate/sphere            # Compute the rotational kinetic energy of all particles
compute        prs   all   pressure thermo_temp                  # Total pressure on ghost particles
thermo_style	custom step atoms ke c_ker vol c_prs
thermo		${thermofreq}
thermo		1000
thermo_modify	lost ignore norm no
# Output to file
dump              2 all custom ${writeOutEvery} post/cycle.lmp id type x y z radius fx fy fz
dump              2 all custom 20000 post/cycle.lmp id type x y z radius fx fy fz
dump_modify       2 format "%7.0g %4.0g %15.10g %15.10g %15.10g %15.10g %15.10g %15.10g %15.10g"
#dump		dmp all custom/vtk ${writeOutEvery} post/dump*.sphere.vtk type mass x y z id vx vy vz fx fy fz omegax omegay omegaz radius
#dump            dumpSphere all stl ${writeOutEvery} post/dump_Sphere*.stl Bsphere

#------------------------Run the calculation------------------------------------------------------
# 1. Run first period: relax the system
run		${writeOutEvery}
run		20000
Resetting global state of Fix contacthistory Style contacthistory from restart file info
Resetting per-atom state of Fix contacthistory Style contacthistory from restart file info
Setting up run at Thu Sep  6 13:20:53 2018

Memory usage per processor = 4.31162 Mbytes
    Step    Atoms         KinEng            ker         Volume            prs 
 2000000     1174     0.13269721    0.017948776           0.75      83.632757 
 2001000     1174     0.13394827    0.017985735           0.75      79.699807 
 2002000     1174     0.13059795     0.01775092           0.75      78.213425 
 2003000     1174     0.12154149    0.018149301           0.75      77.326925 
 2004000     1174     0.10977006    0.017935929           0.75      73.059421 
 2005000     1174     0.10125252    0.018046833           0.75      72.991187 
 2006000     1174    0.097806417    0.017557512           0.75      74.866649 
 2007000     1174    0.096537179    0.017854707           0.75      75.296522 
 2008000     1174    0.096674762    0.018040371           0.75      77.450105 
 2009000     1174    0.091870778    0.017738879           0.75      80.987862 
 2010000     1174    0.082414209    0.018468985           0.75      82.415216 
 2011000     1174    0.069848501    0.017521145           0.75      82.904838 
 2012000     1174     0.06142446    0.017281092           0.75      85.879141 
 2013000     1174    0.057925409    0.017831722           0.75      85.791392 
 2014000     1174    0.057976427    0.018500002           0.75      82.184594 
 2015000     1174    0.058967639    0.017629521           0.75      78.971293 
 2016000     1174    0.055075412    0.018083496           0.75      79.886515 
 2017000     1174    0.047409635    0.018105257           0.75      77.374733 
 2018000     1174    0.038391324    0.017797628           0.75      73.021085 
 2019000     1174     0.03138876    0.018174307           0.75      73.964697 
 2020000     1174    0.031545925    0.018051348           0.75      74.539848 
Loop time of 3.64737 on 80 procs for 20000 steps with 1174 atoms, finish time Thu Sep  6 13:20:57 2018


Pair  time (%) = 0.195407 (5.35749)
Neigh time (%) = 0.00304961 (0.0836112)
Comm  time (%) = 0.190215 (5.21513)
Outpt time (%) = 0.00902479 (0.247433)
Other time (%) = 3.24967 (89.0963)

Nlocal:    14.675 ave 181 max 0 min
Histogram: 67 1 4 3 1 0 0 0 1 3
Nghost:    21.4875 ave 228 max 0 min
Histogram: 65 1 1 6 3 0 0 2 1 1
Neighs:    61.4875 ave 779 max 0 min
Histogram: 67 1 3 5 0 0 0 0 2 2

Total # of neighbors = 4919
Ave neighs/atom = 4.18995
Neighbor list builds = 164
Dangerous builds = 0
# 2. Run second period: growth the particle in all direction
variable          nt   equal    1
label  loop2
  variable        dd    equal   2*(${r0}+${nt}*${grwRt})
  variable        dd    equal   2*(0.02+${nt}*${grwRt})
  variable        dd    equal   2*(0.02+1*${grwRt})
  variable        dd    equal   2*(0.02+1*0.0005)
  set            type  1  diameter  ${dd}
  set            type  1  diameter  0.041
  1174 settings made for diameter
  run		  ${writeOutEvery}
  run		  20000
Setting up run at Thu Sep  6 13:20:57 2018

Memory usage per processor = 4.31163 Mbytes
    Step    Atoms         KinEng            ker         Volume            prs 
 2020000     1174     0.03397151    0.020423444           0.75       1739.447 
 2021000     1174      20.743362      2.7682147           0.75      -30.58402 
 2022000     1174      9.1358657      2.5502635           0.75     -331.84722 
 2023000     1174      12.808092      2.4571611           0.75      62.760695 
 2024000     1174      9.6988973      2.2743632           0.75      365.44498 
 2025000     1174      7.3696219      2.0222944           0.75      134.38538 
 2026000     1174      7.2859761      1.9357531           0.75     -111.31355 
 2027000     1174      4.9106861      1.7285799           0.75     -28.580183 
 2028000     1174      6.3576897      1.6257853           0.75      109.94964 
 2029000     1174      4.0281211      1.5210578           0.75      92.684529 
 2030000     1174      6.1200492      1.5291458           0.75       60.01543 
 2031000     1174      4.6006706      1.4106535           0.75      54.315999 
 2032000     1174       5.227583       1.374795           0.75       53.51609 
 2033000     1174      3.8448249      1.2787764           0.75      124.66718 
 2034000     1174      3.4263036      1.1902338           0.75      234.00981 
 2035000     1174      2.9377601      1.0999164           0.75       127.1206 
 2036000     1174       3.180212      1.0410688           0.75      35.360369 
 2037000     1174      3.3859977      1.0579999           0.75       141.1062 
 2038000     1174      3.7030575      1.0697043           0.75      177.59557 
 2039000     1174      3.1067243      1.0191098           0.75      31.069196 
 2040000     1174      3.2017776     0.92786007           0.75     -9.2165337 
Loop time of 4.13503 on 80 procs for 20000 steps with 1174 atoms, finish time Thu Sep  6 13:21:01 2018


Pair  time (%) = 0.200021 (4.83722)
Neigh time (%) = 0.0380563 (0.920339)
Comm  time (%) = 0.378388 (9.15078)
Outpt time (%) = 0.00839756 (0.203083)
Other time (%) = 3.51017 (84.8886)

Nlocal:    14.675 ave 177 max 0 min
Histogram: 66 2 3 3 2 0 0 0 1 3
Nghost:    22.175 ave 231 max 0 min
Histogram: 62 4 1 5 4 0 1 2 0 1
Neighs:    62.425 ave 750 max 0 min
Histogram: 66 2 2 5 1 0 0 0 1 3

Total # of neighbors = 4994
Ave neighs/atom = 4.25383
Neighbor list builds = 2144
Dangerous builds = 0
  variable        nt    equal   ${nt}+1
  variable        nt    equal   1+1
  if "${nt} > ${grwNs}" then "jump cycle.in loop3"
jump cycle.in loop2
  variable        dd    equal   2*(${r0}+${nt}*${grwRt})
  variable        dd    equal   2*(0.02+${nt}*${grwRt})
  variable        dd    equal   2*(0.02+2*${grwRt})
  variable        dd    equal   2*(0.02+2*0.0005)
  set            type  1  diameter  ${dd}
  set            type  1  diameter  0.042
  1174 settings made for diameter
  run		  ${writeOutEvery}
  run		  20000
Setting up run at Thu Sep  6 13:21:01 2018

Memory usage per processor = 4.31163 Mbytes
    Step    Atoms         KinEng            ker         Volume            prs 
 2040000     1174      3.4418145      1.0466697           0.75      1723.2953 
 2041000     1174      23.939357       3.568227           0.75    -0.81045084 
 2042000     1174       10.30955      2.9594755           0.75     -456.06717 
 2043000     1174      14.650129      2.8375478           0.75      5.3412928 
 2044000     1174      10.953826      2.7318262           0.75       401.9738 
 2045000     1174      8.5997709      2.4311343           0.75      172.10695 
 2046000     1174      8.3558818      2.2857137           0.75     -158.10625 
 2047000     1174      6.2975321      2.1764744           0.75     -60.494794 
 2048000     1174      7.6633547      1.9518135           0.75      128.35547 
 2049000     1174      5.8777315      1.8636025           0.75      183.06691 
 2050000     1174      7.4187132      1.7273516           0.75      75.243221 
 2051000     1174      5.0051829      1.6913614           0.75       73.83002 
 2052000     1174      5.6355266      1.5596144           0.75       110.7385 
 2053000     1174      3.8790724      1.5344182           0.75      176.98595 
 2054000     1174      4.2327056      1.4951103           0.75      227.59285 
 2055000     1174      3.7907453      1.2921594           0.75      142.62561 
 2056000     1174       4.482774       1.210168           0.75      39.370278 
 2057000     1174       4.231385      1.1269216           0.75      100.86309 
 2058000     1174      4.2239892       1.242404           0.75      150.74426 
 2059000     1174      3.2476305      1.1131198           0.75      71.642084 
 2060000     1174      3.2967848      1.0869115           0.75     -37.393218 
Loop time of 4.04505 on 80 procs for 20000 steps with 1174 atoms, finish time Thu Sep  6 13:21:05 2018


Pair  time (%) = 0.20313 (5.02169)
Neigh time (%) = 0.0387154 (0.957106)
Comm  time (%) = 0.384311 (9.50077)
Outpt time (%) = 0.00949655 (0.23477)
Other time (%) = 3.4094 (84.2857)

Nlocal:    14.675 ave 177 max 0 min
Histogram: 66 1 3 4 2 0 0 1 1 2
Nghost:    23.325 ave 236 max 0 min
Histogram: 61 5 0 5 4 1 2 0 1 1
Neighs:    63.125 ave 729 max 0 min
Histogram: 66 1 3 4 2 0 0 0 1 3

Total # of neighbors = 5050
Ave neighs/atom = 4.30153
Neighbor list builds = 2156
Dangerous builds = 0
  variable        nt    equal   ${nt}+1
  variable        nt    equal   2+1
  if "${nt} > ${grwNs}" then "jump cycle.in loop3"
jump cycle.in loop2
  variable        dd    equal   2*(${r0}+${nt}*${grwRt})
  variable        dd    equal   2*(0.02+${nt}*${grwRt})
  variable        dd    equal   2*(0.02+3*${grwRt})
  variable        dd    equal   2*(0.02+3*0.0005)
  set            type  1  diameter  ${dd}
  set            type  1  diameter  0.043
  1174 settings made for diameter
  run		  ${writeOutEvery}
  run		  20000
Setting up run at Thu Sep  6 13:21:05 2018

Memory usage per processor = 4.31163 Mbytes
    Step    Atoms         KinEng            ker         Volume            prs 
 2060000     1174      3.5379207      1.2226159           0.75      1782.7266 
 2061000     1174      23.529373      3.8458128           0.75     -15.791339 
 2062000     1174      10.908252      3.1687937           0.75     -474.82589 
 2063000     1174       14.66157      3.2223884           0.75      37.942108 
 2064000     1174      11.632191      3.0681504           0.75      440.58861 
 2065000     1174      9.6629059      2.8732135           0.75      187.55912 
 2066000     1174      9.3464154      2.5287622           0.75      -141.5987 
 2067000     1174      6.8383375       2.424394           0.75     -40.503246 
 2068000     1174      8.8935041      2.2206782           0.75      159.36187 
 2069000     1174       5.612229      2.1015429           0.75      220.52378 
 2070000     1174      7.9491964      2.1079415           0.75      89.868757 
 2071000     1174       4.833704      1.8283868           0.75      47.008935 
 2072000     1174      6.4758919       1.900527           0.75      88.743277 
 2073000     1174      4.2700417      1.6671118           0.75      200.62209 
 2074000     1174      5.1400279       1.586039           0.75      223.60346 
 2075000     1174      4.1849517      1.5302233           0.75      91.393006 
 2076000     1174      4.7065828      1.4428373           0.75      15.863834 
 2077000     1174      4.1788673      1.4449048           0.75      140.83639 
 2078000     1174      4.3608588      1.3631683           0.75      219.83215 
 2079000     1174      3.4981933      1.2688429           0.75      69.958653 
 2080000     1174       3.656887      1.2385786           0.75     -31.518807 
Loop time of 3.94348 on 80 procs for 20000 steps with 1174 atoms, finish time Thu Sep  6 13:21:08 2018


Pair  time (%) = 0.204925 (5.19656)
Neigh time (%) = 0.0371326 (0.941621)
Comm  time (%) = 0.371577 (9.42255)
Outpt time (%) = 0.00816042 (0.206934)
Other time (%) = 3.32169 (84.2323)

Nlocal:    14.675 ave 172 max 0 min
Histogram: 66 2 2 4 2 0 0 1 1 2
Nghost:    24.2875 ave 240 max 0 min
Histogram: 60 5 1 6 3 1 2 0 1 1
Neighs:    63.6375 ave 743 max 0 min
Histogram: 66 1 3 4 2 0 0 1 1 2

Total # of neighbors = 5091
Ave neighs/atom = 4.33646
Neighbor list builds = 2089
Dangerous builds = 0
  variable        nt    equal   ${nt}+1
  variable        nt    equal   3+1
  if "${nt} > ${grwNs}" then "jump cycle.in loop3"
jump cycle.in loop2
  variable        dd    equal   2*(${r0}+${nt}*${grwRt})
  variable        dd    equal   2*(0.02+${nt}*${grwRt})
  variable        dd    equal   2*(0.02+4*${grwRt})
  variable        dd    equal   2*(0.02+4*0.0005)
  set            type  1  diameter  ${dd}
  set            type  1  diameter  0.044
  1174 settings made for diameter
  run		  ${writeOutEvery}
  run		  20000
Setting up run at Thu Sep  6 13:21:08 2018

Memory usage per processor = 4.31163 Mbytes
    Step    Atoms         KinEng            ker         Volume            prs 
 2080000     1174       3.917998      1.3894556           0.75      1880.8046 
 2081000     1174      24.143525      4.1078025           0.75      34.190343 
 2082000     1174      11.939236      3.4197129           0.75     -464.81615 
 2083000     1174      15.555348      3.2982163           0.75      25.682989 
 2084000     1174      12.685056      3.2868992           0.75      451.66642 
 2085000     1174      10.460112      2.9673939           0.75      234.09935 
 2086000     1174      9.6717509      2.7889279           0.75     -140.05095 
 2087000     1174      7.2059124      2.3316439           0.75      -72.52832 
 2088000     1174      8.9723746      2.4261898           0.75      129.91164 
 2089000     1174       6.372037      2.3394853           0.75      230.01451 
 2090000     1174      8.0217651      2.1794884           0.75      77.162663 
 2091000     1174       6.099706      1.9137965           0.75      59.416989 
 2092000     1174      6.5465968      1.8277273           0.75      99.351981 
 2093000     1174      6.0449126      1.8365785           0.75      168.09384 
 2094000     1174       4.798452      1.7318569           0.75      252.23971 
 2095000     1174      4.9696147      1.6489992           0.75      168.76077 
 2096000     1174      4.0225841      1.5166115           0.75      31.333643 
 2097000     1174      4.7172189      1.3951856           0.75      113.59484 
 2098000     1174      4.5102289      1.4196021           0.75       261.3888 
 2099000     1174      4.3122726      1.3596732           0.75      154.85782 
 2100000     1174      4.1237158       1.310241           0.75     -39.847615 
Loop time of 3.91293 on 80 procs for 20000 steps with 1174 atoms, finish time Thu Sep  6 13:21:12 2018


Pair  time (%) = 0.207698 (5.30799)
Neigh time (%) = 0.0368746 (0.942379)
Comm  time (%) = 0.383105 (9.79074)
Outpt time (%) = 0.00759393 (0.194073)
Other time (%) = 3.27766 (83.7648)

Nlocal:    14.675 ave 161 max 0 min
Histogram: 66 1 2 5 0 2 0 1 1 2
Nghost:    24.9 ave 247 max 0 min
Histogram: 60 5 3 4 3 2 1 1 0 1
Neighs:    64.775 ave 730 max 0 min
Histogram: 66 1 3 3 2 1 0 1 1 2

Total # of neighbors = 5182
Ave neighs/atom = 4.41397
Neighbor list builds = 2098
Dangerous builds = 0
  variable        nt    equal   ${nt}+1
  variable        nt    equal   4+1
  if "${nt} > ${grwNs}" then "jump cycle.in loop3"
jump cycle.in loop2
  variable        dd    equal   2*(${r0}+${nt}*${grwRt})
  variable        dd    equal   2*(0.02+${nt}*${grwRt})
  variable        dd    equal   2*(0.02+5*${grwRt})
  variable        dd    equal   2*(0.02+5*0.0005)
  set            type  1  diameter  ${dd}
  set            type  1  diameter  0.045
  1174 settings made for diameter
  run		  ${writeOutEvery}
  run		  20000
Setting up run at Thu Sep  6 13:21:12 2018

Memory usage per processor = 4.31163 Mbytes
    Step    Atoms         KinEng            ker         Volume            prs 
 2100000     1174      4.4113167      1.4660554           0.75      1964.2674 
 2101000     1174      26.721589       4.117188           0.75     -17.960842 
 2102000     1174      12.356178      3.6469124           0.75     -533.19078 
 2103000     1174      18.997289      3.4017469           0.75      35.079307 
 2104000     1174      12.583373      3.3770661           0.75      539.05939 
 2105000     1174      12.608816      3.2354941           0.75      230.81324 
 2106000     1174      9.7196148      2.7511329           0.75     -214.83186 
 2107000     1174      8.9144461      2.6573589           0.75      -81.96519 
 2108000     1174      9.7971496      2.5206539           0.75       183.9091 
 2109000     1174      8.0398637      2.3777081           0.75      239.10358 
 2110000     1174      8.9718599      2.0963223           0.75      41.943397 
 2111000     1174      7.9698559      2.0805662           0.75       47.06789 
 2112000     1174      6.8770044       1.878488           0.75      182.30062 
 2113000     1174      7.3397178      1.9866541           0.75      198.98912 
 2114000     1174       4.734562      1.8362677           0.75      244.31773 
 2115000     1174      5.6829147      1.8245237           0.75      193.84107 
 2116000     1174      4.5764498      1.5355468           0.75      96.827197 
 2117000     1174      5.3569552      1.5661634           0.75      123.47374 
 2118000     1174      5.5165695      1.4343164           0.75      243.72888 
 2119000     1174      5.0838489      1.4370977           0.75      165.06298 
 2120000     1174      4.8357586      1.3922962           0.75      10.254288 
Loop time of 3.83574 on 80 procs for 20000 steps with 1174 atoms, finish time Thu Sep  6 13:21:16 2018


Pair  time (%) = 0.208913 (5.44647)
Neigh time (%) = 0.0378332 (0.986332)
Comm  time (%) = 0.402554 (10.4948)
Outpt time (%) = 0.00802401 (0.209191)
Other time (%) = 3.17842 (82.8632)

Nlocal:    14.675 ave 150 max 0 min
Histogram: 66 0 3 1 4 2 0 1 0 3
Nghost:    25.5125 ave 249 max 0 min
Histogram: 60 5 1 6 3 2 1 1 0 1
Neighs:    65.2625 ave 691 max 0 min
Histogram: 66 0 3 2 3 2 0 1 1 2

Total # of neighbors = 5221
Ave neighs/atom = 4.44719
Neighbor list builds = 2178
Dangerous builds = 0
  variable        nt    equal   ${nt}+1
  variable        nt    equal   5+1
  if "${nt} > ${grwNs}" then "jump cycle.in loop3"
jump cycle.in loop2
  variable        dd    equal   2*(${r0}+${nt}*${grwRt})
  variable        dd    equal   2*(0.02+${nt}*${grwRt})
  variable        dd    equal   2*(0.02+6*${grwRt})
  variable        dd    equal   2*(0.02+6*0.0005)
  set            type  1  diameter  ${dd}
  set            type  1  diameter  0.046
  1174 settings made for diameter
  run		  ${writeOutEvery}
  run		  20000
Setting up run at Thu Sep  6 13:21:16 2018

Memory usage per processor = 4.31163 Mbytes
    Step    Atoms         KinEng            ker         Volume            prs 
 2120000     1174      5.1653597      1.5540258           0.75      2115.3964 
 2121000     1174      31.462083       4.576955           0.75     -12.616003 
 2122000     1174      11.995122      3.6939576           0.75     -614.51065 
 2123000     1174      22.063933      3.6602946           0.75     -9.5082816 
 2124000     1174      13.954386      3.6753628           0.75       640.9524 
 2125000     1174      14.329036      3.5399293           0.75      299.85716 
 2126000     1174      11.727299      3.0437059           0.75       -267.106 
 2127000     1174      10.126496      2.8773337           0.75     -176.15825 
 2128000     1174      11.333515      2.5933498           0.75      181.61473 
 2129000     1174      9.7797239      2.7095061           0.75      328.04977 
 2130000     1174      9.6486089      2.4134907           0.75      72.956821 
 2131000     1174      10.154303      2.3517651           0.75     -6.0795292 
 2132000     1174      6.9740182      2.1978271           0.75      157.83344 
 2133000     1174      9.2731724       2.205058           0.75      254.11938 
 2134000     1174      4.5943603      1.9004185           0.75      273.66807 
 2135000     1174      7.3503477      2.0080185           0.75      222.64113 
 2136000     1174      5.0535966      1.7315772           0.75        126.699 
 2137000     1174      7.0441992      1.8720417           0.75      119.00276 
 2138000     1174      6.0648696      1.6483781           0.75      208.22071 
 2139000     1174      6.5537885      1.6084163           0.75       244.5417 
 2140000     1174      5.0228207      1.4943004           0.75      57.330705 
Loop time of 3.65304 on 80 procs for 20000 steps with 1174 atoms, finish time Thu Sep  6 13:21:19 2018


Pair  time (%) = 0.209835 (5.74412)
Neigh time (%) = 0.0360874 (0.987873)
Comm  time (%) = 0.398264 (10.9023)
Outpt time (%) = 0.00716321 (0.196089)
Other time (%) = 3.00169 (82.1697)

Nlocal:    14.675 ave 143 max 0 min
Histogram: 65 1 3 2 3 0 2 1 0 3
Nghost:    26.4625 ave 246 max 0 min
Histogram: 60 4 2 5 4 2 1 0 1 1
Neighs:    65.675 ave 670 max 0 min
Histogram: 65 1 3 3 2 2 0 1 1 2

Total # of neighbors = 5254
Ave neighs/atom = 4.4753
Neighbor list builds = 2091
Dangerous builds = 0
  variable        nt    equal   ${nt}+1
  variable        nt    equal   6+1
  if "${nt} > ${grwNs}" then "jump cycle.in loop3"
jump cycle.in loop2
  variable        dd    equal   2*(${r0}+${nt}*${grwRt})
  variable        dd    equal   2*(0.02+${nt}*${grwRt})
  variable        dd    equal   2*(0.02+7*${grwRt})
  variable        dd    equal   2*(0.02+7*0.0005)
  set            type  1  diameter  ${dd}
  set            type  1  diameter  0.047
  1174 settings made for diameter
  run		  ${writeOutEvery}
  run		  20000
Setting up run at Thu Sep  6 13:21:19 2018

Memory usage per processor = 4.31163 Mbytes
    Step    Atoms         KinEng            ker         Volume            prs 
 2140000     1174      5.3575687      1.6639415           0.75      2275.9386 
 2141000     1174      36.268334      4.6083883           0.75     -55.569543 
 2142000     1174      12.066654      3.9693873           0.75     -698.24348 
 2143000     1174      24.912251      3.7420668           0.75     -77.415392 
 2144000     1174      15.444762      3.7681984           0.75      720.18202 
 2145000     1174      15.911491      3.6549435           0.75        399.041 
 2146000     1174      13.052863      3.1787621           0.75     -299.02797 
 2147000     1174      11.077875      2.8831325           0.75     -254.19644 
 2148000     1174      11.987356      2.8198176           0.75      189.71515 
 2149000     1174       11.88753      2.8131847           0.75      406.43346 
 2150000     1174      10.349351      2.6588412           0.75      141.01257 
 2151000     1174      11.424465      2.4439888           0.75     -38.901905 
 2152000     1174      7.7465601      2.3888229           0.75      156.55089 
 2153000     1174      9.7176714        2.39635           0.75      256.77258 
 2154000     1174      5.5740893      2.0734004           0.75      329.80495 
 2155000     1174      7.6426509      2.0364565           0.75      269.88433 
 2156000     1174      5.7342857      1.8305083           0.75      174.21666 
 2157000     1174      7.3988331      1.8437703           0.75      82.976056 
 2158000     1174      6.5754196      1.8323396           0.75      173.83763 
 2159000     1174       7.173569      1.8187611           0.75      257.97736 
 2160000     1174       5.262626      1.5532467           0.75      130.95472 
Loop time of 3.56423 on 80 procs for 20000 steps with 1174 atoms, finish time Thu Sep  6 13:21:22 2018


Pair  time (%) = 0.21031 (5.90058)
Neigh time (%) = 0.0361482 (1.01419)
Comm  time (%) = 0.414069 (11.6173)
Outpt time (%) = 0.00695595 (0.19516)
Other time (%) = 2.89675 (81.2727)

Nlocal:    14.675 ave 139 max 0 min
Histogram: 64 2 2 3 2 2 1 1 0 3
Nghost:    26.8625 ave 238 max 0 min
Histogram: 60 3 3 4 4 3 1 0 1 1
Neighs:    65.8375 ave 626 max 0 min
Histogram: 64 2 3 2 2 3 0 0 1 3

Total # of neighbors = 5267
Ave neighs/atom = 4.48637
Neighbor list builds = 2080
Dangerous builds = 0
  variable        nt    equal   ${nt}+1
  variable        nt    equal   7+1
  if "${nt} > ${grwNs}" then "jump cycle.in loop3"
jump cycle.in loop2
  variable        dd    equal   2*(${r0}+${nt}*${grwRt})
  variable        dd    equal   2*(0.02+${nt}*${grwRt})
  variable        dd    equal   2*(0.02+8*${grwRt})
  variable        dd    equal   2*(0.02+8*0.0005)
  set            type  1  diameter  ${dd}
  set            type  1  diameter  0.048
  1174 settings made for diameter
  run		  ${writeOutEvery}
  run		  20000
Setting up run at Thu Sep  6 13:21:22 2018

Memory usage per processor = 4.31163 Mbytes
    Step    Atoms         KinEng            ker         Volume            prs 
 2160000     1174      5.6057361      1.7256683           0.75      2459.0974 
 2161000     1174      41.650584      4.6285471           0.75      13.383333 
 2162000     1174      14.094307      4.1755853           0.75     -792.35305 
 2163000     1174      25.264872      3.9622191           0.75     -222.81725 
 2164000     1174      19.734239      3.9923066           0.75      691.77643 
 2165000     1174      15.310021      3.6953009           0.75      632.64576 
 2166000     1174      16.335098      3.2111545           0.75     -213.22207 
 2167000     1174       11.86393      3.1827006           0.75     -367.21762 
 2168000     1174      13.450449      2.9536136           0.75      98.928746 
 2169000     1174      14.005515      3.0557336           0.75      466.05598 
 2170000     1174      10.732803       2.814302           0.75      296.78878 
 2171000     1174      12.792924       2.533778           0.75      5.0368047 
 2172000     1174       9.094239      2.4913487           0.75      79.929569 
 2173000     1174      10.055796      2.5264852           0.75      220.79829 
 2174000     1174      8.3124897       2.381206           0.75       361.5456 
 2175000     1174      7.6910261      2.2323727           0.75      353.94614 
 2176000     1174      8.0164314      2.2430641           0.75      190.28323 
 2177000     1174      7.2253618      2.0175777           0.75      71.612731 
 2178000     1174      7.6985777      1.9495489           0.75       98.64793 
 2179000     1174      7.4929628      1.9045726           0.75      253.85957 
 2180000     1174      6.2299689      1.8410797           0.75      255.23598 
Loop time of 3.49759 on 80 procs for 20000 steps with 1174 atoms, finish time Thu Sep  6 13:21:25 2018


Pair  time (%) = 0.211081 (6.03504)
Neigh time (%) = 0.036354 (1.0394)
Comm  time (%) = 0.44971 (12.8577)
Outpt time (%) = 0.00737228 (0.210782)
Other time (%) = 2.79307 (79.8571)

Nlocal:    14.675 ave 133 max 0 min
Histogram: 63 3 2 3 0 3 2 1 0 3
Nghost:    27.5 ave 240 max 0 min
Histogram: 60 1 5 5 3 3 1 0 1 1
Neighs:    66.125 ave 602 max 0 min
Histogram: 63 3 0 4 2 4 0 0 1 3

Total # of neighbors = 5290
Ave neighs/atom = 4.50596
Neighbor list builds = 2113
Dangerous builds = 0
  variable        nt    equal   ${nt}+1
  variable        nt    equal   8+1
  if "${nt} > ${grwNs}" then "jump cycle.in loop3"
jump cycle.in loop2
  variable        dd    equal   2*(${r0}+${nt}*${grwRt})
  variable        dd    equal   2*(0.02+${nt}*${grwRt})
  variable        dd    equal   2*(0.02+9*${grwRt})
  variable        dd    equal   2*(0.02+9*0.0005)
  set            type  1  diameter  ${dd}
  set            type  1  diameter  0.049
  1174 settings made for diameter
  run		  ${writeOutEvery}
  run		  20000
Setting up run at Thu Sep  6 13:21:25 2018

Memory usage per processor = 4.31163 Mbytes
    Step    Atoms         KinEng            ker         Volume            prs 
 2180000     1174      6.6275102      2.0410179           0.75       2710.702 
 2181000     1174      47.085769      5.2199615           0.75      121.28055 
 2182000     1174      17.442264       4.423825           0.75      -872.9019 
 2183000     1174      24.959042      4.2751696           0.75     -356.57947 
 2184000     1174      25.313296      4.4558136           0.75      650.57439 
 2185000     1174      14.625853      3.9261926           0.75      783.99943 
 2186000     1174      18.813056      3.6250287           0.75     -69.934317 
 2187000     1174      13.439308      3.5721659           0.75     -415.96739 
 2188000     1174       13.84739      3.3237918           0.75     -40.574296 
 2189000     1174      15.368606      3.2623772           0.75      396.44728 
 2190000     1174      11.808582      3.0929395           0.75      435.89863 
 2191000     1174      13.404081       2.949898           0.75      99.621693 
 2192000     1174      11.237002      2.8240496           0.75      42.099996 
 2193000     1174      9.1408569      2.5947105           0.75        166.824 
 2194000     1174      10.546026      2.7362913           0.75      333.78419 
 2195000     1174      7.2541773      2.4764529           0.75       399.8879 
 2196000     1174      9.2034962      2.7013472           0.75      294.75802 
 2197000     1174       8.221086      2.3951427           0.75      103.08223 
 2198000     1174      8.5801562      2.3092859           0.75      67.215891 
 2199000     1174        8.10748      2.2936389           0.75      202.90142 
 2200000     1174      8.0900017      2.1274947           0.75      320.56765 
Loop time of 3.46409 on 80 procs for 20000 steps with 1174 atoms, finish time Thu Sep  6 13:21:29 2018


Pair  time (%) = 0.211845 (6.11547)
Neigh time (%) = 0.0394763 (1.13959)
Comm  time (%) = 0.499426 (14.4172)
Outpt time (%) = 0.00807038 (0.232973)
Other time (%) = 2.70527 (78.0947)

Nlocal:    14.675 ave 128 max 0 min
Histogram: 61 5 1 3 1 3 2 1 0 3
Nghost:    28.4875 ave 235 max 0 min
Histogram: 58 3 5 5 2 3 2 0 1 1
Neighs:    66.3125 ave 582 max 0 min
Histogram: 61 5 0 4 2 3 1 0 1 3

Total # of neighbors = 5305
Ave neighs/atom = 4.51874
Neighbor list builds = 2334
Dangerous builds = 0
  variable        nt    equal   ${nt}+1
  variable        nt    equal   9+1
  if "${nt} > ${grwNs}" then "jump cycle.in loop3"
jump cycle.in loop2
  variable        dd    equal   2*(${r0}+${nt}*${grwRt})
  variable        dd    equal   2*(0.02+${nt}*${grwRt})
  variable        dd    equal   2*(0.02+10*${grwRt})
  variable        dd    equal   2*(0.02+10*0.0005)
  set            type  1  diameter  ${dd}
  set            type  1  diameter  0.05
  1174 settings made for diameter
  run		  ${writeOutEvery}
  run		  20000
Setting up run at Thu Sep  6 13:21:29 2018

Memory usage per processor = 4.31163 Mbytes
    Step    Atoms         KinEng            ker         Volume            prs 
 2200000     1174       8.595485      2.3536296           0.75      2891.9471 
 2201000     1174      48.881135      5.4651305           0.75      279.41559 
 2202000     1174      22.762062      4.8086365           0.75     -891.75777 
 2203000     1174      23.529865      4.2447682           0.75     -491.52498 
 2204000     1174       31.42689      4.9041964           0.75       537.7256 
 2205000     1174      15.591261      4.4102115           0.75      937.45238 
 2206000     1174      21.080965      3.9120382           0.75      141.06852 
 2207000     1174      16.340298      3.8125953           0.75     -443.51566 
 2208000     1174       13.69496      3.4525052           0.75     -227.48523 
 2209000     1174      18.043008      3.3851812           0.75      286.56246 
 2210000     1174      13.726544      3.3176802           0.75      601.14716 
 2211000     1174      15.413239      3.0085446           0.75      254.97911 
 2212000     1174      13.573712      2.9183483           0.75      17.024652 
 2213000     1174      10.622484      2.9005697           0.75      23.776591 
 2214000     1174      11.880221      2.9111498           0.75      287.66097 
 2215000     1174      8.8627186      2.5819102           0.75      515.58137 
 2216000     1174      10.610264       2.467325           0.75      451.59806 
 2217000     1174      9.6806072      2.3679915           0.75      109.29251 
 2218000     1174      9.5346358      2.4459503           0.75      -28.95688 
 2219000     1174      9.6587654      2.2403082           0.75      182.21624 
 2220000     1174       9.463436       2.163027           0.75      401.64502 
Loop time of 3.39292 on 80 procs for 20000 steps with 1174 atoms, finish time Thu Sep  6 13:21:32 2018


Pair  time (%) = 0.21279 (6.27158)
Neigh time (%) = 0.0399857 (1.1785)
Comm  time (%) = 0.53694 (15.8253)
Outpt time (%) = 0.00849581 (0.250398)
Other time (%) = 2.59471 (76.4742)

Nlocal:    14.675 ave 123 max 0 min
Histogram: 61 4 2 2 2 1 4 1 0 3
Nghost:    29.1375 ave 236 max 0 min
Histogram: 57 4 5 4 4 3 1 0 1 1
Neighs:    66.825 ave 566 max 0 min
Histogram: 61 5 0 2 3 3 2 0 1 3

Total # of neighbors = 5346
Ave neighs/atom = 4.55366
Neighbor list builds = 2337
Dangerous builds = 0
  variable        nt    equal   ${nt}+1
  variable        nt    equal   10+1
  if "${nt} > ${grwNs}" then "jump cycle.in loop3"
jump cycle.in loop2
  variable        dd    equal   2*(${r0}+${nt}*${grwRt})
  variable        dd    equal   2*(0.02+${nt}*${grwRt})
  variable        dd    equal   2*(0.02+11*${grwRt})
  variable        dd    equal   2*(0.02+11*0.0005)
  set            type  1  diameter  ${dd}
  set            type  1  diameter  0.051
  1174 settings made for diameter
  run		  ${writeOutEvery}
  run		  20000
Setting up run at Thu Sep  6 13:21:32 2018

Memory usage per processor = 4.31163 Mbytes
    Step    Atoms         KinEng            ker         Volume            prs 
 2220000     1174      10.042674      2.3881566           0.75      3085.9979 
 2221000     1174      52.352334      5.2215967           0.75      375.66611 
 2222000     1174       27.40122      4.9802029           0.75     -906.44862 
 2223000     1174      23.987164      4.4735442           0.75     -551.27685 
 2224000     1174      35.536316      5.3537239           0.75      399.29565 
 2225000     1174      18.121333      4.7016833           0.75      948.70315 
 2226000     1174      22.077147       4.202659           0.75      337.25484 
 2227000     1174       18.78212      3.9868473           0.75      -418.6168 
 2228000     1174       13.54475      3.4209381           0.75     -388.29712 
 2229000     1174      20.482196      3.5538474           0.75      175.30958 
 2230000     1174      15.731071      3.3883741           0.75      624.95621 
 2231000     1174      17.205559      3.3036545           0.75      406.45795 
 2232000     1174      16.100839      3.1237949           0.75      67.611018 
 2233000     1174      11.823834      2.8373581           0.75     -40.408427 
 2234000     1174      14.201752      2.8069358           0.75      217.23164 
 2235000     1174      10.111404      2.6652729           0.75      591.51075 
 2236000     1174      11.601742      2.6293583           0.75      619.47496 
 2237000     1174      10.921775      2.5591228           0.75      201.07523 
 2238000     1174      10.166186      2.3827932           0.75     -71.911371 
 2239000     1174       12.37787      2.3845949           0.75      140.21658 
 2240000     1174       9.786173      2.1953431           0.75      426.84295 
Loop time of 3.25374 on 80 procs for 20000 steps with 1174 atoms, finish time Thu Sep  6 13:21:35 2018


Pair  time (%) = 0.214419 (6.58993)
Neigh time (%) = 0.041541 (1.27672)
Comm  time (%) = 0.544103 (16.7224)
Outpt time (%) = 0.00651191 (0.200136)
Other time (%) = 2.44716 (75.2108)

Nlocal:    14.675 ave 113 max 0 min
Histogram: 61 1 4 2 3 1 1 3 1 3
Nghost:    30.2375 ave 238 max 0 min
Histogram: 56 5 4 5 4 3 1 0 1 1
Neighs:    67.2375 ave 533 max 0 min
Histogram: 61 2 3 2 2 3 2 1 1 3

Total # of neighbors = 5379
Ave neighs/atom = 4.58177
Neighbor list builds = 2476
Dangerous builds = 0
  variable        nt    equal   ${nt}+1
  variable        nt    equal   11+1
  if "${nt} > ${grwNs}" then "jump cycle.in loop3"
jump cycle.in loop2
  variable        dd    equal   2*(${r0}+${nt}*${grwRt})
  variable        dd    equal   2*(0.02+${nt}*${grwRt})
  variable        dd    equal   2*(0.02+12*${grwRt})
  variable        dd    equal   2*(0.02+12*0.0005)
  set            type  1  diameter  ${dd}
  set            type  1  diameter  0.052
  1174 settings made for diameter
  run		  ${writeOutEvery}
  run		  20000
Setting up run at Thu Sep  6 13:21:35 2018

Memory usage per processor = 4.31163 Mbytes
    Step    Atoms         KinEng            ker         Volume            prs 
 2240000     1174      10.373191      2.4191803           0.75      3211.1482 
 2241000     1174      55.096559      5.7133651           0.75      545.61259 
 2242000     1174      31.938316      5.1710212           0.75     -872.44719 
 2243000     1174      23.197991      4.5829942           0.75     -695.29403 
 2244000     1174      38.277705      5.4253085           0.75       292.6257 
 2245000     1174      21.322472      5.2057851           0.75      965.64942 
 2246000     1174      21.731744      4.8641144           0.75      552.97918 
 2247000     1174      23.063864      4.1212475           0.75     -348.60613 
 2248000     1174      13.783001      3.9175063           0.75     -500.69801 
 2249000     1174      22.636462      3.9060499           0.75      36.658066 
 2250000     1174       18.85584      3.8250525           0.75      586.54342 
 2251000     1174      17.588411      3.4401312           0.75      610.43121 
 2252000     1174      20.678473      3.5717417           0.75      170.72303 
 2253000     1174      12.026705      3.1959257           0.75     -54.802662 
 2254000     1174      16.263732      3.2192094           0.75      126.21156 
 2255000     1174      11.181528      3.0232621           0.75      496.48389 
 2256000     1174      10.741022      2.9378106           0.75      803.04522 
 2257000     1174      14.432953      2.9128384           0.75      414.98231 
 2258000     1174      9.9794809      2.5175584           0.75     -63.668741 
 2259000     1174      14.901875      2.7662513           0.75     -11.025948 
 2260000     1174      12.073561      2.3386763           0.75      399.46465 
Loop time of 3.13001 on 80 procs for 20000 steps with 1174 atoms, finish time Thu Sep  6 13:21:38 2018


Pair  time (%) = 0.215268 (6.87755)
Neigh time (%) = 0.0401385 (1.28238)
Comm  time (%) = 0.540444 (17.2666)
Outpt time (%) = 0.00657908 (0.210194)
Other time (%) = 2.32758 (74.3633)

Nlocal:    14.675 ave 108 max 0 min
Histogram: 61 1 5 1 1 3 1 2 2 3
Nghost:    31.1625 ave 242 max 0 min
Histogram: 56 5 3 6 4 3 1 1 0 1
Neighs:    67.4 ave 511 max 0 min
Histogram: 61 1 4 2 2 2 3 0 2 3

Total # of neighbors = 5392
Ave neighs/atom = 4.59284
Neighbor list builds = 2408
Dangerous builds = 0
  variable        nt    equal   ${nt}+1
  variable        nt    equal   12+1
  if "${nt} > ${grwNs}" then "jump cycle.in loop3"
jump cycle.in loop2
  variable        dd    equal   2*(${r0}+${nt}*${grwRt})
  variable        dd    equal   2*(0.02+${nt}*${grwRt})
  variable        dd    equal   2*(0.02+13*${grwRt})
  variable        dd    equal   2*(0.02+13*0.0005)
  set            type  1  diameter  ${dd}
  set            type  1  diameter  0.053
  1174 settings made for diameter
  run		  ${writeOutEvery}
  run		  20000
Setting up run at Thu Sep  6 13:21:38 2018

Memory usage per processor = 4.31163 Mbytes
    Step    Atoms         KinEng            ker         Volume            prs 
 2260000     1174      12.783594      2.5723659           0.75      3288.6068 
 2261000     1174      54.300552      5.9043788           0.75       761.8006 
 2262000     1174      38.970399      5.3156428           0.75     -828.18852 
 2263000     1174      21.279695      4.6832889           0.75     -793.11676 
 2264000     1174      40.299771      5.2615594           0.75      155.22705 
 2265000     1174      24.430478       5.551869           0.75      972.23771 
 2266000     1174      18.288138      4.6894324           0.75      708.18918 
 2267000     1174      27.648318      4.6418917           0.75     -222.76283 
 2268000     1174      13.592537      4.2376864           0.75      -579.4719 
 2269000     1174      20.406523      4.0968301           0.75     -154.61395 
 2270000     1174       25.04193      4.0680595           0.75      496.05157 
 2271000     1174      14.700191      3.6278361           0.75      745.64102 
 2272000     1174      26.198763      3.7966964           0.75      348.51515 
 2273000     1174      13.810849       3.202113           0.75     -50.381695 
 2274000     1174      15.442112      3.3681176           0.75       -31.4392 
 2275000     1174      16.534592       3.249129           0.75      422.92467 
 2276000     1174      7.9025194      2.9396202           0.75      888.01656 
 2277000     1174      17.028083      2.9827465           0.75      712.54362 
 2278000     1174       11.54113      2.6735148           0.75      54.217821 
 2279000     1174       13.23249      2.6249477           0.75     -215.83319 
 2280000     1174      18.303279      2.6366731           0.75      234.26668 
Loop time of 3.0842 on 80 procs for 20000 steps with 1174 atoms, finish time Thu Sep  6 13:21:41 2018


Pair  time (%) = 0.216547 (7.02119)
Neigh time (%) = 0.0384436 (1.24647)
Comm  time (%) = 0.546635 (17.7237)
Outpt time (%) = 0.0074376 (0.241152)
Other time (%) = 2.27513 (73.7675)

Nlocal:    14.675 ave 105 max 0 min
Histogram: 61 0 3 4 1 3 1 1 4 2
Nghost:    32.175 ave 241 max 0 min
Histogram: 55 6 4 5 4 3 1 1 0 1
Neighs:    67.45 ave 499 max 0 min
Histogram: 60 1 5 2 1 3 3 0 3 2

Total # of neighbors = 5396
Ave neighs/atom = 4.59625
Neighbor list builds = 2313
Dangerous builds = 0
  variable        nt    equal   ${nt}+1
  variable        nt    equal   13+1
  if "${nt} > ${grwNs}" then "jump cycle.in loop3"
jump cycle.in loop2
  variable        dd    equal   2*(${r0}+${nt}*${grwRt})
  variable        dd    equal   2*(0.02+${nt}*${grwRt})
  variable        dd    equal   2*(0.02+14*${grwRt})
  variable        dd    equal   2*(0.02+14*0.0005)
  set            type  1  diameter  ${dd}
  set            type  1  diameter  0.054
  1174 settings made for diameter
  run		  ${writeOutEvery}
  run		  20000
Setting up run at Thu Sep  6 13:21:41 2018

Memory usage per processor = 4.31163 Mbytes
    Step    Atoms         KinEng            ker         Volume            prs 
 2280000     1174      19.358984      2.8949811           0.75      3195.3429 
 2281000     1174      43.376945      5.7837188           0.75      970.05701 
 2282000     1174      43.545844      5.6879496           0.75     -584.74738 
 2283000     1174      22.613317       4.809033           0.75     -826.18089 
 2284000     1174      35.391563      5.3189761           0.75     -5.4034916 
 2285000     1174      29.294239      5.6682006           0.75      818.55275 
 2286000     1174      13.663743      4.7043759           0.75      761.40516 
 2287000     1174      27.393463      4.8740698           0.75     -36.105964 
 2288000     1174      15.704319      4.1516555           0.75     -552.95961 
 2289000     1174      15.511574      3.8892064           0.75     -287.32096 
 2290000     1174      27.929739        4.08927           0.75      228.71976 
 2291000     1174      15.276542      3.8098847           0.75      800.23079 
 2292000     1174      25.471384      3.6677538           0.75      621.42843 
 2293000     1174      20.326593      3.5536915           0.75      90.177546 
 2294000     1174      13.075443      3.0593552           0.75     -134.40995 
 2295000     1174      19.236997      3.1146403           0.75      206.48205 
 2296000     1174      9.3383708      2.9106657           0.75      877.72746 
 2297000     1174      12.827066      2.7785051           0.75      1046.1728 
 2298000     1174       16.26285      3.1771515           0.75      347.21118 
 2299000     1174       11.04661      2.6836108           0.75     -233.02244 
 2300000     1174      19.462579      2.7662115           0.75      33.404842 
Loop time of 3.02703 on 80 procs for 20000 steps with 1174 atoms, finish time Thu Sep  6 13:21:43 2018


Pair  time (%) = 0.217606 (7.18878)
Neigh time (%) = 0.0367983 (1.21566)
Comm  time (%) = 0.549163 (18.142)
Outpt time (%) = 0.0150453 (0.497033)
Other time (%) = 2.20842 (72.9566)

Nlocal:    14.675 ave 99 max 0 min
Histogram: 60 1 1 6 1 2 1 2 3 3
Nghost:    33.75 ave 235 max 0 min
Histogram: 53 6 5 6 2 5 1 0 1 1
Neighs:    67.525 ave 484 max 0 min
Histogram: 60 1 3 4 1 2 4 0 3 2

Total # of neighbors = 5402
Ave neighs/atom = 4.60136
Neighbor list builds = 2193
Dangerous builds = 0
  variable        nt    equal   ${nt}+1
  variable        nt    equal   14+1
  if "${nt} > ${grwNs}" then "jump cycle.in loop3"
jump cycle.in loop2
  variable        dd    equal   2*(${r0}+${nt}*${grwRt})
  variable        dd    equal   2*(0.02+${nt}*${grwRt})
  variable        dd    equal   2*(0.02+15*${grwRt})
  variable        dd    equal   2*(0.02+15*0.0005)
  set            type  1  diameter  ${dd}
  set            type  1  diameter  0.055
  1174 settings made for diameter
  run		  ${writeOutEvery}
  run		  20000
Setting up run at Thu Sep  6 13:21:43 2018

Memory usage per processor = 4.31163 Mbytes
    Step    Atoms         KinEng            ker         Volume            prs 
 2300000     1174       20.56398      3.0320059           0.75      3068.5258 
 2301000     1174      40.119042      5.9690779           0.75      947.31289 
 2302000     1174      39.542476      5.6257241           0.75     -378.11409 
 2303000     1174      28.670296      5.0764715           0.75     -703.68489 
 2304000     1174      30.636227       5.086029           0.75      29.858393 
 2305000     1174      29.756224      5.5250455           0.75       671.3708 
 2306000     1174      14.464503      5.0725683           0.75      618.77078 
 2307000     1174      21.678314      5.0486022           0.75      26.934186 
 2308000     1174      18.235136      4.6096001           0.75     -382.38561 
 2309000     1174      12.646486      4.0315081           0.75     -301.12581 
 2310000     1174      26.720773      4.1680902           0.75      59.039682 
 2311000     1174      19.511865      3.8759706           0.75       605.5793 
 2312000     1174       24.05329      3.7783868           0.75      628.47812 
 2313000     1174      25.452302      3.8984118           0.75      334.01466 
 2314000     1174      15.993374      3.3378346           0.75      35.992471 
 2315000     1174      18.711845       3.352024           0.75      61.004764 
 2316000     1174      11.355985       3.107762           0.75      717.94521 
 2317000     1174      10.232525      3.1165608           0.75      1164.3187 
 2318000     1174      15.533435      3.0325486           0.75      702.64471 
 2319000     1174      13.202457      2.9298005           0.75     -58.038047 
 2320000     1174      17.842174      2.8756545           0.75     -80.121883 
Loop time of 2.96684 on 80 procs for 20000 steps with 1174 atoms, finish time Thu Sep  6 13:21:46 2018


Pair  time (%) = 0.218614 (7.36856)
Neigh time (%) = 0.0366551 (1.23549)
Comm  time (%) = 0.562816 (18.9702)
Outpt time (%) = 0.00635084 (0.21406)
Other time (%) = 2.14241 (72.2117)

Nlocal:    14.675 ave 94 max 0 min
Histogram: 60 1 1 5 2 1 2 1 4 3
Nghost:    35 ave 228 max 0 min
Histogram: 50 8 4 8 2 4 2 0 1 1
Neighs:    67.85 ave 472 max 0 min
Histogram: 60 1 1 5 2 2 3 2 2 2

Total # of neighbors = 5428
Ave neighs/atom = 4.62351
Neighbor list builds = 2217
Dangerous builds = 0
  variable        nt    equal   ${nt}+1
  variable        nt    equal   15+1
  if "${nt} > ${grwNs}" then "jump cycle.in loop3"
jump cycle.in loop2
  variable        dd    equal   2*(${r0}+${nt}*${grwRt})
  variable        dd    equal   2*(0.02+${nt}*${grwRt})
  variable        dd    equal   2*(0.02+16*${grwRt})
  variable        dd    equal   2*(0.02+16*0.0005)
  set            type  1  diameter  ${dd}
  set            type  1  diameter  0.056
  1174 settings made for diameter
  run		  ${writeOutEvery}
  run		  20000
Setting up run at Thu Sep  6 13:21:46 2018

Memory usage per processor = 4.31163 Mbytes
    Step    Atoms         KinEng            ker         Volume            prs 
 2320000     1174      18.833185      3.1467584           0.75      3035.0319 
 2321000     1174       42.09954      5.9940564           0.75      818.16089 
 2322000     1174      38.935063      5.4794806           0.75     -324.35785 
 2323000     1174      32.726479      5.6338027           0.75     -601.21378 
 2324000     1174      32.732575      5.1430263           0.75      100.34998 
 2325000     1174      29.127491      5.3263211           0.75      657.31246 
 2326000     1174      15.335192      5.0617895           0.75      509.71454 
 2327000     1174      19.266959      4.6729701           0.75     -65.645427 
 2328000     1174      16.660673       4.596026           0.75     -345.38193 
 2329000     1174      12.362046       4.039236           0.75     -208.67642 
 2330000     1174      23.339592      4.4214587           0.75      28.812762 
 2331000     1174      22.623944      3.9543124           0.75      403.22029 
 2332000     1174      25.382893      3.8516386           0.75      538.34643 
 2333000     1174      28.474534      3.6997677           0.75      408.95308 
 2334000     1174      21.949271      3.5428146           0.75      166.30202 
 2335000     1174      21.119027      3.3523485           0.75      103.67785 
 2336000     1174      13.323186      3.2463681           0.75      591.41088 
 2337000     1174      10.556099      3.3131494           0.75      1076.2298 
 2338000     1174      13.209641      3.1019446           0.75      955.93371 
 2339000     1174      14.214057      2.8862202           0.75      296.53933 
 2340000     1174      17.698172      2.7957468           0.75     -13.216811 
Loop time of 2.89117 on 80 procs for 20000 steps with 1174 atoms, finish time Thu Sep  6 13:21:49 2018


Pair  time (%) = 0.220111 (7.61322)
Neigh time (%) = 0.0356141 (1.23182)
Comm  time (%) = 0.565954 (19.5753)
Outpt time (%) = 0.00628321 (0.217325)
Other time (%) = 2.0632 (71.3623)

Nlocal:    14.675 ave 89 max 0 min
Histogram: 59 2 0 3 5 0 1 2 5 3
Nghost:    35.9 ave 225 max 0 min
Histogram: 49 9 3 8 2 4 3 0 1 1
Neighs:    68.35 ave 445 max 0 min
Histogram: 59 2 1 5 2 0 2 4 3 2

Total # of neighbors = 5468
Ave neighs/atom = 4.65758
Neighbor list builds = 2145
Dangerous builds = 0
  variable        nt    equal   ${nt}+1
  variable        nt    equal   16+1
  if "${nt} > ${grwNs}" then "jump cycle.in loop3"
jump cycle.in loop2
  variable        dd    equal   2*(${r0}+${nt}*${grwRt})
  variable        dd    equal   2*(0.02+${nt}*${grwRt})
  variable        dd    equal   2*(0.02+17*${grwRt})
  variable        dd    equal   2*(0.02+17*0.0005)
  set            type  1  diameter  ${dd}
  set            type  1  diameter  0.057
  1174 settings made for diameter
  run		  ${writeOutEvery}
  run		  20000
Setting up run at Thu Sep  6 13:21:49 2018

Memory usage per processor = 4.31163 Mbytes
    Step    Atoms         KinEng            ker         Volume            prs 
 2340000     1174      18.663319      3.0544427           0.75      3224.4779 
 2341000     1174      49.220183      6.2098223           0.75      745.41628 
 2342000     1174        45.6825      5.9545086           0.75     -393.20752 
 2343000     1174      38.820761      5.4206419           0.75     -533.19783 
 2344000     1174      39.760866      5.5508145           0.75       149.4488 
 2345000     1174      32.969698      5.4034044           0.75      664.32017 
 2346000     1174      18.023527      5.0379324           0.75      452.69093 
 2347000     1174      19.385687       4.771012           0.75     -110.23499 
 2348000     1174      17.944392      4.9320823           0.75     -332.29884 
 2349000     1174      12.686165       3.955174           0.75     -182.44884 
 2350000     1174      21.529806      4.3431225           0.75      19.204096 
 2351000     1174      23.300865      4.1172731           0.75      189.42655 
 2352000     1174      28.402398      4.1748181           0.75      388.90748 
 2353000     1174      32.748615      3.8178121           0.75      448.81572 
 2354000     1174      30.481782      3.5544194           0.75      237.96908 
 2355000     1174      29.212392      3.5446456           0.75      83.647701 
 2356000     1174      20.049978      3.1985931           0.75      464.42102 
 2357000     1174      12.147304      3.0772022           0.75      1094.2922 
 2358000     1174      12.454395      3.1836908           0.75      1101.3289 
 2359000     1174      12.366567      2.9040362           0.75      592.42838 
 2360000     1174      16.835717      2.8314182           0.75      208.03811 
Loop time of 2.85108 on 80 procs for 20000 steps with 1174 atoms, finish time Thu Sep  6 13:21:51 2018


Pair  time (%) = 0.221916 (7.78357)
Neigh time (%) = 0.0377039 (1.32244)
Comm  time (%) = 0.597 (20.9394)
Outpt time (%) = 0.0062892 (0.22059)
Other time (%) = 1.98817 (69.734)

Nlocal:    14.675 ave 87 max 0 min
Histogram: 58 3 0 3 4 1 1 2 6 2
Nghost:    37.2375 ave 219 max 0 min
Histogram: 45 12 4 7 2 5 2 1 1 1
Neighs:    68.975 ave 442 max 0 min
Histogram: 59 2 0 6 2 0 2 5 2 2

Total # of neighbors = 5518
Ave neighs/atom = 4.70017
Neighbor list builds = 2280
Dangerous builds = 0
  variable        nt    equal   ${nt}+1
  variable        nt    equal   17+1
  if "${nt} > ${grwNs}" then "jump cycle.in loop3"
jump cycle.in loop2
  variable        dd    equal   2*(${r0}+${nt}*${grwRt})
  variable        dd    equal   2*(0.02+${nt}*${grwRt})
  variable        dd    equal   2*(0.02+18*${grwRt})
  variable        dd    equal   2*(0.02+18*0.0005)
  set            type  1  diameter  ${dd}
  set            type  1  diameter  0.058
  1174 settings made for diameter
  run		  ${writeOutEvery}
  run		  20000
Setting up run at Thu Sep  6 13:21:51 2018

Memory usage per processor = 4.31163 Mbytes
    Step    Atoms         KinEng            ker         Volume            prs 
 2360000     1174      17.737444      3.0886571           0.75      3589.6031 
 2361000     1174        56.6301      6.5213459           0.75      869.61646 
 2362000     1174      55.798374       6.112548           0.75     -381.94905 
 2363000     1174      51.014782      5.6987307           0.75     -557.50914 
 2364000     1174      51.646862       5.490631           0.75      221.12448 
 2365000     1174      44.132646      5.6062952           0.75      786.84403 
 2366000     1174      26.960511      4.9130281           0.75      505.71367 
 2367000     1174      22.470792      4.8873714           0.75     -174.72573 
 2368000     1174      21.250294      4.7394887           0.75      -364.1469 
 2369000     1174      13.712805      4.7376859           0.75     -225.83868 
 2370000     1174      17.822161      4.4766769           0.75      117.01842 
 2371000     1174      21.975562      4.1567552           0.75      125.91765 
 2372000     1174      26.299354      4.0706263           0.75      176.63629 
 2373000     1174      36.976355      4.2689207           0.75      193.34019 
 2374000     1174      37.561841      3.6079304           0.75      230.13664 
 2375000     1174      45.096709      3.6539948           0.75       154.3574 
 2376000     1174       38.96607      3.5488298           0.75      301.45207 
 2377000     1174      25.195909      3.4272898           0.75      882.88287 
 2378000     1174      18.955256      3.4900297           0.75      1154.2102 
 2379000     1174      11.192725      3.0705186           0.75      938.66014 
 2380000     1174      11.604385      3.0859026           0.75      555.36792 
Loop time of 2.79276 on 80 procs for 20000 steps with 1174 atoms, finish time Thu Sep  6 13:21:54 2018


Pair  time (%) = 0.223358 (7.99773)
Neigh time (%) = 0.039078 (1.39926)
Comm  time (%) = 0.62439 (22.3574)
Outpt time (%) = 0.00595559 (0.213251)
Other time (%) = 1.89998 (68.0323)

Nlocal:    14.675 ave 86 max 0 min
Histogram: 57 4 0 3 4 1 1 2 6 2
Nghost:    38.175 ave 210 max 0 min
Histogram: 40 14 7 6 3 4 3 1 0 2
Neighs:    69.6875 ave 438 max 0 min
Histogram: 58 3 0 5 3 1 3 3 2 2

Total # of neighbors = 5575
Ave neighs/atom = 4.74872
Neighbor list builds = 2392
Dangerous builds = 0
  variable        nt    equal   ${nt}+1
  variable        nt    equal   18+1
  if "${nt} > ${grwNs}" then "jump cycle.in loop3"
jump cycle.in loop2
  variable        dd    equal   2*(${r0}+${nt}*${grwRt})
  variable        dd    equal   2*(0.02+${nt}*${grwRt})
  variable        dd    equal   2*(0.02+19*${grwRt})
  variable        dd    equal   2*(0.02+19*0.0005)
  set            type  1  diameter  ${dd}
  set            type  1  diameter  0.059
  1174 settings made for diameter
  run		  ${writeOutEvery}
  run		  20000
Setting up run at Thu Sep  6 13:21:54 2018

Memory usage per processor = 4.31163 Mbytes
    Step    Atoms         KinEng            ker         Volume            prs 
 2380000     1174       12.21502      3.3612615           0.75      4117.7921 
 2381000     1174      57.977271      6.3665728           0.75      1132.3905 
 2382000     1174      62.875962      6.0058514           0.75     -220.05667 
 2383000     1174      66.432288      6.1268959           0.75     -508.82323 
 2384000     1174       68.65213      5.3408751           0.75      251.42898 
 2385000     1174      61.760336      5.7832052           0.75      858.38496 
 2386000     1174      42.815098      5.1700591           0.75        571.068 
 2387000     1174      31.263661      4.7806436           0.75     -80.646953 
 2388000     1174      27.804511       5.098106           0.75      -417.7653 
 2389000     1174      18.421003      4.3290726           0.75     -286.27539 
 2390000     1174      16.345701      4.3542982           0.75      178.67693 
 2391000     1174      18.710357       4.388139           0.75      151.18297 
 2392000     1174      20.301124      4.1559939           0.75      35.652286 
 2393000     1174      30.628317      4.4170345           0.75     -58.387685 
 2394000     1174      34.476346      3.7073885           0.75      125.91911 
 2395000     1174      48.181556      3.6664147           0.75      134.76964 
 2396000     1174       56.38596      3.6924005           0.75      116.71047 
 2397000     1174      49.541834      3.4373389           0.75      431.05734 
 2398000     1174      43.347493      3.3625341           0.75      943.69548 
 2399000     1174      29.541818      3.5179634           0.75      1087.3915 
 2400000     1174      12.118958      3.0264504           0.75      887.95609 
Loop time of 2.82647 on 80 procs for 20000 steps with 1174 atoms, finish time Thu Sep  6 13:21:57 2018


Pair  time (%) = 0.225064 (7.96271)
Neigh time (%) = 0.0403988 (1.4293)
Comm  time (%) = 0.670706 (23.7294)
Outpt time (%) = 0.00610806 (0.216102)
Other time (%) = 1.8842 (66.6625)

Nlocal:    14.675 ave 82 max 0 min
Histogram: 55 6 0 3 2 3 2 1 5 3
Nghost:    39.175 ave 216 max 0 min
Histogram: 41 14 6 6 3 4 3 1 1 1
Neighs:    70.4375 ave 425 max 0 min
Histogram: 55 5 1 3 5 1 1 5 2 2

Total # of neighbors = 5635
Ave neighs/atom = 4.79983
Neighbor list builds = 2478
Dangerous builds = 0
  variable        nt    equal   ${nt}+1
  variable        nt    equal   19+1
  if "${nt} > ${grwNs}" then "jump cycle.in loop3"
jump cycle.in loop2
  variable        dd    equal   2*(${r0}+${nt}*${grwRt})
  variable        dd    equal   2*(0.02+${nt}*${grwRt})
  variable        dd    equal   2*(0.02+20*${grwRt})
  variable        dd    equal   2*(0.02+20*0.0005)
  set            type  1  diameter  ${dd}
  set            type  1  diameter  0.06
  1174 settings made for diameter
  run		  ${writeOutEvery}
  run		  20000
Setting up run at Thu Sep  6 13:21:57 2018

Memory usage per processor = 4.31163 Mbytes
    Step    Atoms         KinEng            ker         Volume            prs 
 2400000     1174       12.74568      3.2917721           0.75      4617.1416 
 2401000     1174      49.130898      6.7281239           0.75       1446.361 
 2402000     1174      52.776199      6.2025478           0.75      3.2946526 
 2403000     1174      62.335935      6.1242269           0.75     -345.56771 
 2404000     1174      73.470779      5.6888992           0.75      259.51126 
 2405000     1174      72.400346      5.6259928           0.75      1005.7227 
 2406000     1174       61.66176      5.6433107           0.75      794.83733 
 2407000     1174       45.12696      4.8999137           0.75      102.09853 
 2408000     1174       33.22873      5.1701679           0.75     -392.65111 
 2409000     1174      26.516654      4.8392486           0.75     -373.04175 
 2410000     1174      22.044531      4.4264316           0.75       131.7374 
 2411000     1174      15.499176      4.0938407           0.75       338.3137 
 2412000     1174      16.234884       4.078426           0.75      79.192316 
 2413000     1174       24.88045      4.0714373           0.75      -244.8413 
 2414000     1174       27.94207      4.1094723           0.75     -102.51073 
 2415000     1174      34.328578      3.7843987           0.75      162.91614 
 2416000     1174      52.481313      3.9488108           0.75      283.96972 
 2417000     1174      53.265889      3.6658661           0.75      387.07776 
 2418000     1174      51.018866      3.5712108           0.75      496.91985 
 2419000     1174      44.780241      3.6159898           0.75      743.29392 
 2420000     1174      27.726738      3.2048338           0.75      815.60071 
Loop time of 2.75584 on 80 procs for 20000 steps with 1174 atoms, finish time Thu Sep  6 13:21:59 2018


Pair  time (%) = 0.225579 (8.18548)
Neigh time (%) = 0.0398687 (1.4467)
Comm  time (%) = 0.66829 (24.2499)
Outpt time (%) = 0.00599673 (0.2176)
Other time (%) = 1.81611 (65.9003)

Nlocal:    14.675 ave 79 max 0 min
Histogram: 54 5 2 2 2 3 1 4 5 2
Nghost:    40.5125 ave 212 max 0 min
Histogram: 38 16 7 6 4 3 3 1 1 1
Neighs:    70.15 ave 405 max 0 min
Histogram: 55 5 1 2 4 2 2 4 3 2

Total # of neighbors = 5612
Ave neighs/atom = 4.78024
Neighbor list builds = 2480
Dangerous builds = 0
  variable        nt    equal   ${nt}+1
  variable        nt    equal   20+1
  if "${nt} > ${grwNs}" then "jump cycle.in loop3"
jump cycle.in loop3
  variable        dd    equal   2*(0.03-(${nt}-${grwNs})*${grwRt})
  variable        dd    equal   2*(0.03-(21-${grwNs})*${grwRt})
  variable        dd    equal   2*(0.03-(21-20)*${grwRt})
  variable        dd    equal   2*(0.03-(21-20)*0.0005)
  set             type  1  diameter  ${dd}
  set             type  1  diameter  0.059
  1174 settings made for diameter
  run		  ${writeOutEvery}
  run		  20000
Setting up run at Thu Sep  6 13:21:59 2018

Memory usage per processor = 4.31163 Mbytes
    Step    Atoms         KinEng            ker         Volume            prs 
 2420000     1174      26.363378      2.9465195           0.75     -2284.9508 
 2421000     1174      50.648685      6.3048168           0.75      324.03353 
 2422000     1174      39.168337      6.9539987           0.75      1929.3803 
 2423000     1174      19.565635      6.3267845           0.75      2197.2122 
 2424000     1174      43.140752       5.792177           0.75      1031.2322 
 2425000     1174      40.341886      6.0018714           0.75     -217.65029 
 2426000     1174       30.42303      5.1520769           0.75     -458.16362 
 2427000     1174      47.615689      5.1204611           0.75     -56.809684 
 2428000     1174      41.330635      5.5156063           0.75      903.01546 
 2429000     1174      24.264592      4.8155921           0.75      1234.4285 
 2430000     1174      33.236247      4.8161217           0.75      261.79632 
 2431000     1174      19.725187      4.4712751           0.75     -676.81027 
 2432000     1174      15.112343      4.2503444           0.75     -710.56285 
 2433000     1174      24.456841       4.387904           0.75      33.024496 
 2434000     1174      17.409188      4.1332779           0.75      699.02845 
 2435000     1174        23.1633      4.2125523           0.75      700.11273 
 2436000     1174      30.982054      3.8495101           0.75      172.22483 
 2437000     1174      24.501226      3.5121386           0.75     -287.88273 
 2438000     1174      30.507021      3.5966938           0.75     -55.452563 
 2439000     1174      29.872315      3.9166693           0.75       581.6199 
 2440000     1174      17.352692      3.3565757           0.75      1220.2403 
Loop time of 2.77789 on 80 procs for 20000 steps with 1174 atoms, finish time Thu Sep  6 13:22:02 2018


Pair  time (%) = 0.224224 (8.07172)
Neigh time (%) = 0.0401042 (1.44369)
Comm  time (%) = 0.639614 (23.0251)
Outpt time (%) = 0.00623273 (0.224369)
Other time (%) = 1.86772 (67.2351)

Nlocal:    14.675 ave 84 max 0 min
Histogram: 54 7 0 2 3 2 2 4 4 2
Nghost:    39.0125 ave 219 max 0 min
Histogram: 41 14 6 6 4 4 2 1 1 1
Neighs:    70.2625 ave 425 max 0 min
Histogram: 57 4 0 2 6 0 2 5 1 3

Total # of neighbors = 5621
Ave neighs/atom = 4.7879
Neighbor list builds = 2456
Dangerous builds = 0
  variable        nt    equal   ${nt}+1
  variable        nt    equal   21+1
  if "${nt} > 40" then "jump cycle.in loop4"
jump cycle.in loop3
  variable        dd    equal   2*(0.03-(${nt}-${grwNs})*${grwRt})
  variable        dd    equal   2*(0.03-(22-${grwNs})*${grwRt})
  variable        dd    equal   2*(0.03-(22-20)*${grwRt})
  variable        dd    equal   2*(0.03-(22-20)*0.0005)
  set             type  1  diameter  ${dd}
  set             type  1  diameter  0.058
  1174 settings made for diameter
  run		  ${writeOutEvery}
  run		  20000
Setting up run at Thu Sep  6 13:22:02 2018

Memory usage per processor = 4.31163 Mbytes
    Step    Atoms         KinEng            ker         Volume            prs 
 2440000     1174      16.485222      3.0816006           0.75     -1864.8941 
 2441000     1174      38.326357      6.3503869           0.75       520.7528 
 2442000     1174      24.748071      6.0748214           0.75      1440.9649 
 2443000     1174      23.599923      5.9876537           0.75      1257.9564 
 2444000     1174      19.994457      5.5842999           0.75      373.53299 
 2445000     1174       21.94113      5.3277669           0.75      34.886029 
 2446000     1174      21.514311      5.3453269           0.75      309.81009 
 2447000     1174      19.640279      4.9542547           0.75      552.36975 
 2448000     1174      24.518993        4.74103           0.75      531.49894 
 2449000     1174      19.591357      4.8933956           0.75      275.58346 
 2450000     1174      18.646621      4.6195736           0.75      220.63517 
 2451000     1174      14.806189      3.9412673           0.75      190.67218 
 2452000     1174       15.08811       4.115254           0.75      218.58064 
 2453000     1174       13.70273      3.9535319           0.75    0.033194108 
 2454000     1174      9.0912066      3.3403834           0.75        39.0643 
 2455000     1174      16.430846      3.7942253           0.75      287.64047 
 2456000     1174      13.196495      3.4466043           0.75      416.40835 
 2457000     1174      14.925995      3.4711521           0.75      219.85444 
 2458000     1174       15.59104      3.1962012           0.75      141.63853 
 2459000     1174      14.852382      3.0042136           0.75      356.13184 
 2460000     1174      13.107746      3.0837734           0.75       666.4541 
Loop time of 2.73329 on 80 procs for 20000 steps with 1174 atoms, finish time Thu Sep  6 13:22:04 2018


Pair  time (%) = 0.223153 (8.16424)
Neigh time (%) = 0.0341545 (1.24957)
Comm  time (%) = 0.576525 (21.0927)
Outpt time (%) = 0.00597307 (0.21853)
Other time (%) = 1.89349 (69.275)

Nlocal:    14.675 ave 83 max 0 min
Histogram: 55 6 0 2 3 2 3 1 5 3
Nghost:    38.6 ave 222 max 0 min
Histogram: 43 13 5 7 3 4 2 1 1 1
Neighs:    69.6875 ave 418 max 0 min
Histogram: 57 4 0 3 5 1 1 3 3 3

Total # of neighbors = 5575
Ave neighs/atom = 4.74872
Neighbor list builds = 2066
Dangerous builds = 0
  variable        nt    equal   ${nt}+1
  variable        nt    equal   22+1
  if "${nt} > 40" then "jump cycle.in loop4"
jump cycle.in loop3
  variable        dd    equal   2*(0.03-(${nt}-${grwNs})*${grwRt})
  variable        dd    equal   2*(0.03-(23-${grwNs})*${grwRt})
  variable        dd    equal   2*(0.03-(23-20)*${grwRt})
  variable        dd    equal   2*(0.03-(23-20)*0.0005)
  set             type  1  diameter  ${dd}
  set             type  1  diameter  0.057
  1174 settings made for diameter
  run		  ${writeOutEvery}
  run		  20000
Setting up run at Thu Sep  6 13:22:04 2018

Memory usage per processor = 4.31163 Mbytes
    Step    Atoms         KinEng            ker         Volume            prs 
 2460000     1174      12.441381      2.8269412           0.75     -2224.6109 
 2461000     1174      37.153512      5.9812233           0.75      88.775892 
 2462000     1174      30.065998      6.1158832           0.75      1366.2303 
 2463000     1174      24.628978      5.9048059           0.75      1325.5026 
 2464000     1174      23.430818      5.3928865           0.75      284.20031 
 2465000     1174       24.77307      5.4669473           0.75      -140.0377 
 2466000     1174      15.146837      4.9601579           0.75      149.39963 
 2467000     1174      21.563625      4.7368214           0.75       467.0307 
 2468000     1174      17.513488      4.8257285           0.75      611.76599 
 2469000     1174      19.204022      4.5003196           0.75      683.47251 
 2470000     1174      20.448976      4.5442672           0.75      408.45024 
 2471000     1174      13.492143      3.8420273           0.75      57.971884 
 2472000     1174        18.5794       4.050089           0.75      -93.79456 
 2473000     1174      13.769269      3.6042821           0.75      134.08738 
 2474000     1174      10.937898      3.7332137           0.75      511.17243 
 2475000     1174      15.472815      3.5780709           0.75      453.27729 
 2476000     1174      11.196171      3.4183147           0.75      87.500737 
 2477000     1174      11.029189      3.2663862           0.75     -186.57288 
 2478000     1174      14.007745      3.2385058           0.75      89.601448 
 2479000     1174      13.028436       3.187763           0.75      651.02893 
 2480000     1174      10.923028      2.9219583           0.75      760.37976 
Loop time of 2.83583 on 80 procs for 20000 steps with 1174 atoms, finish time Thu Sep  6 13:22:07 2018


Pair  time (%) = 0.222157 (7.83394)
Neigh time (%) = 0.0364082 (1.28386)
Comm  time (%) = 0.582505 (20.5409)
Outpt time (%) = 0.00587143 (0.207045)
Other time (%) = 1.98889 (70.1342)

Nlocal:    14.675 ave 86 max 0 min
Histogram: 58 3 0 3 4 1 1 2 5 3
Nghost:    37.775 ave 227 max 0 min
Histogram: 47 10 4 7 3 4 2 1 1 1
Neighs:    69.775 ave 440 max 0 min
Histogram: 58 3 0 5 2 1 2 4 3 2

Total # of neighbors = 5582
Ave neighs/atom = 4.75468
Neighbor list builds = 2192
Dangerous builds = 0
  variable        nt    equal   ${nt}+1
  variable        nt    equal   23+1
  if "${nt} > 40" then "jump cycle.in loop4"
jump cycle.in loop3
  variable        dd    equal   2*(0.03-(${nt}-${grwNs})*${grwRt})
  variable        dd    equal   2*(0.03-(24-${grwNs})*${grwRt})
  variable        dd    equal   2*(0.03-(24-20)*${grwRt})
  variable        dd    equal   2*(0.03-(24-20)*0.0005)
  set             type  1  diameter  ${dd}
  set             type  1  diameter  0.056
  1174 settings made for diameter
  run		  ${writeOutEvery}
  run		  20000
Setting up run at Thu Sep  6 13:22:07 2018

Memory usage per processor = 4.31163 Mbytes
    Step    Atoms         KinEng            ker         Volume            prs 
[...]
 2685000     1174      11.041537      3.0581761           0.75      175.51166 
 2686000     1174      10.964248      2.9768353           0.75      399.15135 
 2687000     1174      8.8167162      2.6659845           0.75      332.25991 
 2688000     1174      10.519194      2.6188973           0.75      144.90687 
 2689000     1174       7.175796      2.3946953           0.75     -15.015252 
 2690000     1174      9.8177807      2.5084399           0.75      105.73009 
 2691000     1174      6.6931302      2.3179091           0.75      279.50929 
 2692000     1174      8.3207025      2.1689503           0.75      205.69504 
 2693000     1174      5.1344857      1.9271651           0.75     -61.947743 
 2694000     1174      7.0592912      1.9300364           0.75      -95.62554 
 2695000     1174      5.5728567      1.8689019           0.75      237.29574 
 2696000     1174       6.128376      1.7520619           0.75      320.76953 
 2697000     1174      5.9802681      1.7331587           0.75     -81.433203 
 2698000     1174      5.2805586       1.668938           0.75      -60.36478 
 2699000     1174       6.077576      1.5674827           0.75      313.70983 
 2700000     1174      4.1551426      1.4402135           0.75      382.41147 
Loop time of 3.70184 on 80 procs for 20000 steps with 1174 atoms, finish time Thu Sep  6 13:22:40 2018


Pair  time (%) = 0.213898 (5.77815)
Neigh time (%) = 0.0363204 (0.981142)
Comm  time (%) = 0.406546 (10.9823)
Outpt time (%) = 0.00719773 (0.194436)
Other time (%) = 3.03788 (82.064)

Nlocal:    14.675 ave 148 max 0 min
Histogram: 66 1 1 3 2 2 1 1 0 3
Nghost:    26 ave 253 max 0 min
Histogram: 60 4 3 4 4 2 1 1 0 1
Neighs:    67.4375 ave 705 max 0 min
Histogram: 66 1 1 4 3 1 0 0 3 1

Total # of neighbors = 5395
Ave neighs/atom = 4.5954
Neighbor list builds = 2087
Dangerous builds = 0
  variable        nt    equal   ${nt}+1
  variable        nt    equal   34+1
  if "${nt} > 40" then "jump cycle.in loop4"
jump cycle.in loop3
  variable        dd    equal   2*(0.03-(${nt}-${grwNs})*${grwRt})
  variable        dd    equal   2*(0.03-(35-${grwNs})*${grwRt})
  variable        dd    equal   2*(0.03-(35-20)*${grwRt})
  variable        dd    equal   2*(0.03-(35-20)*0.0005)
  set             type  1  diameter  ${dd}
  set             type  1  diameter  0.045
  1174 settings made for diameter
  run		  ${writeOutEvery}
  run		  20000
Setting up run at Thu Sep  6 13:22:40 2018

Memory usage per processor = 4.31163 Mbytes
    Step    Atoms         KinEng            ker         Volume            prs 
 2700000     1174      3.8900034      1.2903285           0.75     -1401.5193 
 2701000     1174      24.238018      3.7909013           0.75      29.594394 
 2702000     1174      13.172767      3.6476674           0.75      847.13995 
 2703000     1174      15.619635      3.4463784           0.75      131.11106 
 2704000     1174       13.86312      3.2051224           0.75     -256.94472 
 2705000     1174      9.9666836      2.8353068           0.75      90.064393 
 2706000     1174      12.218928      2.8257853           0.75      347.84708 
 2707000     1174      7.5478488      2.5768179           0.75      374.93425 
 2708000     1174      10.384133       2.491279           0.75      169.73629 
 2709000     1174      7.9756805      2.3273353           0.75     -31.612453 
 2710000     1174      8.9756644      2.1094411           0.75      42.294196 
 2711000     1174      7.1798833      2.0456439           0.75      278.39668 
 2712000     1174       8.722367      2.0307336           0.75      248.77108 
 2713000     1174      5.1548681       1.806097           0.75     -103.07085 
 2714000     1174      7.3868529      1.8170261           0.75     -131.33346 
 2715000     1174      5.3490796       1.671353           0.75      285.53785 
 2716000     1174      6.7009989      1.6507882           0.75      263.82917 
 2717000     1174      6.0588521      1.6290173           0.75     -109.93837 
 2718000     1174      5.7450371      1.5820129           0.75      8.5005579 
 2719000     1174      6.3200111      1.5286947           0.75      308.77757 
 2720000     1174      4.8568369      1.5932261           0.75      273.34355 
Loop time of 3.88378 on 80 procs for 20000 steps with 1174 atoms, finish time Thu Sep  6 13:22:44 2018


Pair  time (%) = 0.213006 (5.4845)
Neigh time (%) = 0.0395197 (1.01756)
Comm  time (%) = 0.405165 (10.4322)
Outpt time (%) = 0.00856067 (0.220421)
Other time (%) = 3.21753 (82.8453)

Nlocal:    14.675 ave 155 max 0 min
Histogram: 66 1 1 4 3 0 1 1 1 2
Nghost:    25.5875 ave 257 max 0 min
Histogram: 60 6 2 4 3 2 1 1 0 1
Neighs:    67.2625 ave 737 max 0 min
Histogram: 66 1 2 3 3 1 0 1 1 2

Total # of neighbors = 5381
Ave neighs/atom = 4.58348
Neighbor list builds = 2253
Dangerous builds = 0
  variable        nt    equal   ${nt}+1
  variable        nt    equal   35+1
  if "${nt} > 40" then "jump cycle.in loop4"
jump cycle.in loop3
  variable        dd    equal   2*(0.03-(${nt}-${grwNs})*${grwRt})
  variable        dd    equal   2*(0.03-(36-${grwNs})*${grwRt})
  variable        dd    equal   2*(0.03-(36-20)*${grwRt})
  variable        dd    equal   2*(0.03-(36-20)*0.0005)
  set             type  1  diameter  ${dd}
  set             type  1  diameter  0.044
  1174 settings made for diameter
  run		  ${writeOutEvery}
  run		  20000
Setting up run at Thu Sep  6 13:22:44 2018

Memory usage per processor = 4.31163 Mbytes
    Step    Atoms         KinEng            ker         Volume            prs 
 2720000     1174      4.5401898      1.4238959           0.75      -1405.405 
 2721000     1174      25.547784      3.7383109           0.75      64.424615 
 2722000     1174      14.336995      3.8149966           0.75      813.61494 
 2723000     1174      16.252548      3.3775732           0.75      106.82272 
 2724000     1174      13.704373      3.3313927           0.75     -249.71204 
 2725000     1174      10.310936      2.9049054           0.75      84.005564 
 2726000     1174      12.015691      2.7029317           0.75      346.87473 
 2727000     1174      8.1558104      2.5179746           0.75      375.62515 
 2728000     1174      10.351034      2.4487223           0.75       108.6172 
 2729000     1174      7.8805295      2.1834968           0.75     -84.915688 
 2730000     1174      9.5420779      2.2084817           0.75      70.814493 
 2731000     1174      6.8363115      1.9754708           0.75      336.00354 
 2732000     1174       8.247044      1.9336566           0.75      148.32483 
 2733000     1174      5.7001421      1.8304676           0.75      -179.4463 
 2734000     1174      6.7743716      1.8254305           0.75     -35.655127 
 2735000     1174      5.5174347      1.6495313           0.75      324.09592 
 2736000     1174      6.7409534      1.6805147           0.75      129.28239 
 2737000     1174      5.3042615       1.568187           0.75     -88.543325 
 2738000     1174      6.9273715      1.4871093           0.75      78.251147 
 2739000     1174      4.0285974      1.4497403           0.75      311.65014 
 2740000     1174      5.9551387      1.5181252           0.75      214.02508 
Loop time of 4.04915 on 80 procs for 20000 steps with 1174 atoms, finish time Thu Sep  6 13:22:48 2018


Pair  time (%) = 0.211663 (5.22735)
Neigh time (%) = 0.0430052 (1.06208)
Comm  time (%) = 0.405012 (10.0024)
Outpt time (%) = 0.00800807 (0.197772)
Other time (%) = 3.38146 (83.5104)

Nlocal:    14.675 ave 169 max 0 min
Histogram: 66 2 4 0 3 1 0 1 1 2
Nghost:    24.6625 ave 240 max 0 min
Histogram: 60 6 1 5 3 1 1 1 1 1
Neighs:    66.6125 ave 757 max 0 min
Histogram: 66 1 2 3 3 1 0 1 1 2

Total # of neighbors = 5329
Ave neighs/atom = 4.53918
Neighbor list builds = 2429
Dangerous builds = 0
  variable        nt    equal   ${nt}+1
  variable        nt    equal   36+1
  if "${nt} > 40" then "jump cycle.in loop4"
jump cycle.in loop3
  variable        dd    equal   2*(0.03-(${nt}-${grwNs})*${grwRt})
  variable        dd    equal   2*(0.03-(37-${grwNs})*${grwRt})
  variable        dd    equal   2*(0.03-(37-20)*${grwRt})
  variable        dd    equal   2*(0.03-(37-20)*0.0005)
  set             type  1  diameter  ${dd}
  set             type  1  diameter  0.043
  1174 settings made for diameter
  run		  ${writeOutEvery}
  run		  20000
Setting up run at Thu Sep  6 13:22:48 2018

Memory usage per processor = 4.31163 Mbytes
    Step    Atoms         KinEng            ker         Volume            prs 
 2740000     1174      5.5582646      1.3532763           0.75     -1374.9188 
 2741000     1174      25.514261      3.5609113           0.75      55.095614 
 2742000     1174      13.936826      3.5826741           0.75      809.95753 
 2743000     1174      17.616427      3.1433271           0.75      59.993775 
 2744000     1174      12.290236      2.7770252           0.75     -271.92067 
 2745000     1174       11.33747      2.7176851           0.75      53.012056 
 2746000     1174      12.232241      2.6103726           0.75      350.07697 
 2747000     1174      8.3108212      2.3316662           0.75      366.22718 
 2748000     1174       10.19002      2.1540461           0.75      5.5916669 
 2749000     1174      7.4168786      2.0172559           0.75     -127.88679 
 2750000     1174      10.046882      2.1330884           0.75      148.81078 
 2751000     1174       6.765341      1.8462084           0.75       372.5518 
 2752000     1174      7.2927924      1.7545918           0.75      58.244938 
 2753000     1174       5.943538      1.7984159           0.75     -227.47688 
 2754000     1174      6.8911157      1.5399531           0.75      64.840451 
 2755000     1174       5.395147      1.5209832           0.75      364.27194 
 2756000     1174      6.6834749      1.4817116           0.75      42.832557 
 2757000     1174       4.709556      1.3810077           0.75     -124.22156 
 2758000     1174      6.4614284      1.4465777           0.75      136.82654 
 2759000     1174      4.1766945      1.3841067           0.75       324.8251 
 2760000     1174      5.7526588      1.3271538           0.75      109.52985 
Loop time of 4.17908 on 80 procs for 20000 steps with 1174 atoms, finish time Thu Sep  6 13:22:52 2018


Pair  time (%) = 0.210418 (5.03504)
Neigh time (%) = 0.0438221 (1.04861)
Comm  time (%) = 0.40691 (9.73685)
Outpt time (%) = 0.00834358 (0.199651)
Other time (%) = 3.50958 (83.9798)

Nlocal:    14.675 ave 177 max 0 min
Histogram: 66 2 4 2 1 1 0 1 1 2
Nghost:    23.7625 ave 230 max 0 min
Histogram: 60 6 0 5 4 1 1 1 1 1
Neighs:    66.1375 ave 779 max 0 min
Histogram: 66 1 5 2 2 0 0 0 2 2

Total # of neighbors = 5291
Ave neighs/atom = 4.50681
Neighbor list builds = 2442
Dangerous builds = 0
  variable        nt    equal   ${nt}+1
  variable        nt    equal   37+1
  if "${nt} > 40" then "jump cycle.in loop4"
jump cycle.in loop3
  variable        dd    equal   2*(0.03-(${nt}-${grwNs})*${grwRt})
  variable        dd    equal   2*(0.03-(38-${grwNs})*${grwRt})
  variable        dd    equal   2*(0.03-(38-20)*${grwRt})
  variable        dd    equal   2*(0.03-(38-20)*0.0005)
  set             type  1  diameter  ${dd}
  set             type  1  diameter  0.042
  1174 settings made for diameter
  run		  ${writeOutEvery}
  run		  20000
Setting up run at Thu Sep  6 13:22:52 2018

Memory usage per processor = 4.31163 Mbytes
    Step    Atoms         KinEng            ker         Volume            prs 
 2760000     1174      5.3605719      1.1798463           0.75     -1374.7901 
 2761000     1174      27.489633      3.3892364           0.75      7.7524154 
 2762000     1174      13.364007      3.2040312           0.75      816.93301 
 2763000     1174      18.171892      2.9919498           0.75     -1.9606294 
 2764000     1174      11.957149      2.7451279           0.75     -308.08425 
 2765000     1174      12.198795      2.5173506           0.75      93.293447 
 2766000     1174       11.49801      2.5208054           0.75      387.43507 
 2767000     1174      10.357876      2.3962134           0.75      276.02367 
 2768000     1174      7.9177671      1.9648203           0.75     -34.676994 
 2769000     1174      9.4794046      1.8073495           0.75     -74.908157 
 2770000     1174      8.3486147      1.8033389           0.75      180.70399 
 2771000     1174      8.3286142      1.7560067           0.75      364.84104 
 2772000     1174      6.6600634      1.5136645           0.75     -46.592795 
 2773000     1174      6.2684191      1.5700117           0.75     -258.99437 
 2774000     1174      6.3762733      1.5048997           0.75      224.66151 
 2775000     1174      5.9639999       1.487202           0.75      323.91895 
 2776000     1174      5.9934567      1.3422033           0.75     -132.63029 
 2777000     1174      5.5110166      1.3249716           0.75     -102.34135 
 2778000     1174      5.8399982      1.3432623           0.75      287.30176 
 2779000     1174      5.1945958      1.3154561           0.75       254.6707 
 2780000     1174      4.5125215      1.3007932           0.75     -21.361325 
Loop time of 4.29014 on 80 procs for 20000 steps with 1174 atoms, finish time Thu Sep  6 13:22:56 2018


Pair  time (%) = 0.209268 (4.87789)
Neigh time (%) = 0.0457511 (1.06643)
Comm  time (%) = 0.406168 (9.46748)
Outpt time (%) = 0.0078224 (0.182334)
Other time (%) = 3.62113 (84.4059)

Nlocal:    14.675 ave 181 max 0 min
Histogram: 67 2 3 2 1 1 0 1 1 2
Nghost:    22.9625 ave 230 max 0 min
Histogram: 61 5 1 4 4 1 1 1 1 1
Neighs:    65.325 ave 809 max 0 min
Histogram: 67 1 4 2 2 0 0 1 1 2

Total # of neighbors = 5226
Ave neighs/atom = 4.45145
Neighbor list builds = 2519
Dangerous builds = 0
  variable        nt    equal   ${nt}+1
  variable        nt    equal   38+1
  if "${nt} > 40" then "jump cycle.in loop4"
jump cycle.in loop3
  variable        dd    equal   2*(0.03-(${nt}-${grwNs})*${grwRt})
  variable        dd    equal   2*(0.03-(39-${grwNs})*${grwRt})
  variable        dd    equal   2*(0.03-(39-20)*${grwRt})
  variable        dd    equal   2*(0.03-(39-20)*0.0005)
  set             type  1  diameter  ${dd}
  set             type  1  diameter  0.041
  1174 settings made for diameter
  run		  ${writeOutEvery}
  run		  20000
Setting up run at Thu Sep  6 13:22:56 2018

Memory usage per processor = 4.31163 Mbytes
    Step    Atoms         KinEng            ker         Volume            prs 
 2780000     1174       4.197812      1.1531375           0.75     -1395.0338 
 2781000     1174      31.524177      3.3883528           0.75      82.179464 
 2782000     1174      14.202521      3.4471264           0.75      818.10421 
 2783000     1174      19.861823      2.8210729           0.75     -120.17487 
 2784000     1174      11.721935      2.5376978           0.75     -291.70436 
 2785000     1174      14.351488      2.4871347           0.75       170.7269 
 2786000     1174      9.2161092      2.1308905           0.75      377.87554 
 2787000     1174      12.968461      2.1938942           0.75      183.81194 
 2788000     1174      5.9876731       1.697488           0.75     -66.519222 
 2789000     1174      10.614293      1.7460099           0.75     -48.337038 
 2790000     1174      6.6611033      1.6791204           0.75      298.15278 
 2791000     1174      8.6860183      1.5511391           0.75      253.05279 
 2792000     1174      5.5824869      1.3868787           0.75     -183.43967 
 2793000     1174       6.753619      1.4123422           0.75     -131.54614 
 2794000     1174      5.3980124      1.3502645           0.75      351.34131 
 2795000     1174      6.0891712      1.2258667           0.75      133.02645 
 2796000     1174        4.65976        1.18266           0.75     -198.32777 
 2797000     1174      6.3125646       1.122719           0.75      68.805277 
 2798000     1174      4.5565192      1.2162036           0.75      305.84032 
 2799000     1174      5.5319835      1.2116894           0.75      97.366678 
 2800000     1174      3.7129911       1.111591           0.75     -24.712433 
Loop time of 4.49539 on 80 procs for 20000 steps with 1174 atoms, finish time Thu Sep  6 13:23:00 2018


Pair  time (%) = 0.208517 (4.63848)
Neigh time (%) = 0.0449635 (1.00022)
Comm  time (%) = 0.402602 (8.9559)
Outpt time (%) = 0.00807991 (0.179738)
Other time (%) = 3.83122 (85.2257)

Nlocal:    14.675 ave 187 max 0 min
Histogram: 67 2 3 2 2 0 0 1 1 2
Nghost:    22.3375 ave 238 max 0 min
Histogram: 65 1 2 4 4 0 1 1 1 1
Neighs:    65.225 ave 861 max 0 min
Histogram: 67 2 3 2 2 0 0 1 2 1

Total # of neighbors = 5218
Ave neighs/atom = 4.44463
Neighbor list builds = 2495
Dangerous builds = 0
  variable        nt    equal   ${nt}+1
  variable        nt    equal   39+1
  if "${nt} > 40" then "jump cycle.in loop4"
jump cycle.in loop3
  variable        dd    equal   2*(0.03-(${nt}-${grwNs})*${grwRt})
  variable        dd    equal   2*(0.03-(40-${grwNs})*${grwRt})
  variable        dd    equal   2*(0.03-(40-20)*${grwRt})
  variable        dd    equal   2*(0.03-(40-20)*0.0005)
  set             type  1  diameter  ${dd}
  set             type  1  diameter  0.04
  1174 settings made for diameter
  run		  ${writeOutEvery}
  run		  20000
Setting up run at Thu Sep  6 13:23:00 2018

Memory usage per processor = 4.31171 Mbytes
    Step    Atoms         KinEng            ker         Volume            prs 
 2800000     1174      3.4478813     0.98248443           0.75      -1327.867 
 2801000     1174      31.651308      3.2639978           0.75      223.04363 
 2802000     1174      14.885837      3.1170195           0.75      737.06718 
 2803000     1174      18.442388      2.6996047           0.75     -257.19841 
 2804000     1174      10.980251      2.4681897           0.75     -209.10703 
 2805000     1174      15.063094      2.2052831           0.75      250.21089 
 2806000     1174      7.4853036      2.1952526           0.75      327.10482 
 2807000     1174        12.5486      2.0748671           0.75      75.219113 
 2808000     1174      5.9276872      1.6880972           0.75     -68.373395 
 2809000     1174      9.7158129      1.6206621           0.75       64.02179 
 2810000     1174      7.3926368      1.6107317           0.75       311.5271 
 2811000     1174      7.4325813      1.5671725           0.75       70.99227 
 2812000     1174      5.9934642      1.5143904           0.75     -206.33872 
 2813000     1174      6.6079528      1.2934209           0.75       94.30485 
 2814000     1174      5.0469083      1.2408695           0.75      299.73702 
 2815000     1174       6.077139      1.2612824           0.75     -101.43092 
 2816000     1174      4.7662773         1.0945           0.75     -100.12751 
 2817000     1174      5.2716742      1.1203728           0.75      256.68534 
 2818000     1174      5.0061108       1.168695           0.75      155.98124 
 2819000     1174      4.1855913      1.0789405           0.75     -46.286185 
 2820000     1174      3.6050846      1.0063154           0.75      89.781227 
Loop time of 4.60367 on 80 procs for 20000 steps with 1174 atoms, finish time Thu Sep  6 13:23:04 2018


Pair  time (%) = 0.208462 (4.52818)
Neigh time (%) = 0.0446187 (0.969199)
Comm  time (%) = 0.391716 (8.50879)
Outpt time (%) = 0.0087741 (0.190589)
Other time (%) = 3.9501 (85.8032)

Nlocal:    14.675 ave 197 max 0 min
Histogram: 68 1 4 1 2 0 0 1 1 2
Nghost:    21.6625 ave 220 max 0 min
Histogram: 65 1 2 3 4 1 0 1 2 1
Neighs:    65.475 ave 904 max 0 min
Histogram: 68 1 5 1 1 0 0 1 2 1

Total # of neighbors = 5238
Ave neighs/atom = 4.46167
Neighbor list builds = 2408
Dangerous builds = 0
  variable        nt    equal   ${nt}+1
  variable        nt    equal   40+1
  if "${nt} > 40" then "jump cycle.in loop4"
jump cycle.in loop4
rite_restart   cycle.restart
ERROR: Unknown command: rite_restart   cycle.restart (../input.cpp:259)
