ITEM: TIMESTEP
1981000
ITEM: NUMBER OF ATOMS
3117
ITEM: BOX BOUNDS fm fm fm
0.0000000000000000e+00 8.0000000000000000e+01
0.0000000000000000e+00 8.0000000000000000e+01
0.0000000000000000e+00 8.2500000000000000e+01
ITEM: ATOMS id type x y z radius fx fy fz 
   1915     2    2.240111467700    2.127089916952    2.141691481826    2.210415000000  -4.733364280779e+00   6.352519569919e-01   3.612214615569e-01 
    657     1    8.383527681694    2.516950368884    2.514841395934    2.593750000000  -1.480833376211e+01  -9.453125654720e+00   2.031650697906e+01 
    139     1   17.567698688721    3.127616208813    3.106295375937    3.123750000000   4.699445165112e+00   3.901887654765e+01   1.678475843836e+01 
   1760     2   22.907345890628    2.514552196091    4.916137105453    2.568750000000  -6.232676592655e+00  -1.242351527978e+01  -7.701308940072e+00 
   1483     1   27.567165416058    5.056242243819    2.300948302376    1.666250000000  -1.150963859456e-16   0.000000000000e+00  -9.398333137828e-01 
   1740     2   31.478190907791    2.714712592879    2.711592298917    2.747915000000  -1.121552511421e+01  -4.759478232270e+00   8.077332612593e-01 
    562     1    2.520270422198   10.264564158637    3.840219882239    2.593750000000  -1.113180211093e+01   1.788831486343e+01  -2.513202885166e-02 
   1075     1    4.029701559052    6.119157635456    2.144658381837    2.196250000000  -1.114249583153e+01   8.889652433863e+00  -2.027325601783e+00 
    101     1    8.991550811576    8.123759005876    3.389380887938    3.256250000000  -1.238009517803e+02  -1.906376261287e+01   4.828873197126e+01 
   1070     1   14.223712981688    7.158459436062    2.159264702869    2.196250000000   6.074656383251e+00  -4.290160055971e-01  -2.280506739160e+00 
    454     1   17.925983003423    9.330376408570    4.475645361299    2.726250000000  -9.343339625375e+00  -4.046108187409e+01   8.329383283954e+00 
    405     1   22.532189660211    7.221201547313    2.604542140950    2.726250000000  -2.378629545029e+01  -4.965152363991e+01  -1.140306305513e+01 
   1577     2   32.585179671625    8.828198996013    3.336377514736    3.464585000000   8.406788026448e+00  -1.351824809238e+01  -1.852629830316e+01 
   1447     1   36.604508178302    5.880249827508    1.729773773239    1.798750000000  -2.055058345431e-01  -3.002277424384e-01  -1.119643337559e+00 
    308     1   39.846601279917    8.309611585967    3.976504184553    2.858750000000  -4.726345322793e+00   1.481722990779e+01   3.673129672773e+01 
    212     1    2.920612613524   16.525694823120    2.829434233783    2.991250000000   1.700797016360e+01  -3.023557973548e+01  -9.090502042323e+00 
   1104     1    6.274699727087   12.578449409785    2.109905082784    2.196250000000  -1.900387323427e+01   8.310350660700e+00   7.870179438032e+00 
   1467     1    9.746994590150   14.663417704466    1.778712764265    1.798750000000  -1.727210571124e+00   1.098014877475e+01  -7.344127688557e+00 
   1432     1    8.193783366552   14.212109302688    5.218828109702    1.798750000000   2.131339178342e+01  -2.751157793915e+00  -1.010541058482e+01 
    489     1   13.323991522609   12.089101674298    2.666644688325    2.726250000000  -6.373573358197e+01  -8.739615983854e+00  -1.157151585910e+00 
    776     1   17.009549114176   14.285781544592    5.481661106844    2.461250000000  -3.416457431269e+01  -2.179652320279e+01   3.093329817731e+01 
    119     1   22.267768299691   13.185002165667    3.149421394557    3.256250000000  -4.322825477924e+01  -4.687718716753e+01  -8.120444918051e+01 
    451     1   28.421213998681   13.293528558369    2.597121077832    2.726250000000   6.594455356710e+00  -5.894007176452e+01  -3.417126323842e+01 
   1287     1   32.533130991710   15.539739426949    1.989238235820    2.063750000000  -5.802469507908e+00   5.715095679625e+00  -3.009374138899e+00 
    288     1   37.133530224628   13.114686250906    2.751997811836    2.858750000000  -8.382598147728e+00   1.979421571968e+01   1.436529941857e+00 
     83     1    8.489236413278   19.179842300023    3.908861651140    3.388750000000  -3.647760913288e+01   4.080124621652e+01  -3.900514647571e+01 
    510     1   14.129036648072   17.445049338815    2.596607586995    2.726250000000   1.144598816801e+01   1.072272774437e+01   4.004648253322e-01 
   1643     2   19.535912388481   18.951982616376    3.771768918113    3.106250000000   2.737854836229e+01  -6.055318078166e+01   3.444274529845e+01 
   1401     1   24.903088117408   18.018189906787    1.970496448058    1.931250000000  -1.792077098690e-16   0.000000000000e+00  -1.463342001905e+00 
   1163     1   29.023244400893   19.574548170621    2.024797141121    2.196250000000  -1.601891817059e+01  -3.578985698067e+01   1.397925955430e+01 
   1334     1   32.354165218841   19.277534853362    4.308797037086    1.931250000000   1.244712030014e+01  -1.440669834008e+01   4.841436884123e+00 
   1959     2   28.853751257553   22.517739915132    4.904803304701    2.031250000000   6.236812395975e+00  -9.454176421277e+00  -4.786203491050e+00 
   1213     1   35.122824637413   22.093481601009    4.340100236553    2.063750000000   1.343225364713e+01   1.228105880460e+01  -4.689376357063e+00 
    760     1   36.073906052676   18.247760443687    2.373191443392    2.461250000000   2.214634323958e+00   3.623383710417e+01  -2.534584492911e+01 
   1792     2   39.353660244985   22.467334858460    2.446978588764    2.568750000000  -1.874349693302e+00   1.817974270158e+01   8.247180532664e+00 
    814     1    5.412175704100   23.938566611308    2.387253947269    2.461250000000  -4.640619677724e+00  -8.213310928084e+00  -8.239757341333e+00 
   1019     1    2.121828000313   27.182743656854    2.137069853435    2.196250000000   1.446568381740e+00  -1.675602241344e+01   4.430810764898e+00 
   2004     2    9.662093883173   24.014034366768    1.821774218387    1.852085000000  -1.034924750216e+00   7.308193396195e+00  -2.332819661358e+00 
   1813     2    6.925297636095   28.556840725819    2.323319456991    2.389585000000  -4.065806445433e-01   4.156152820797e+00   4.161535260268e+00 
   1280     1   13.526042632838   23.842467689167    1.956272697573    2.063750000000  -1.126255159736e+01   7.918948321603e-01  -1.277497519739e+01 
    626     1   11.997708034685   28.318590435853    2.435112048810    2.593750000000  -8.062221202068e+00  -5.732928348822e+00   2.683948912099e+01 
    220     1   18.012881726759   24.999178013653    3.787794680460    2.991250000000   2.547701096209e+01   6.554224919877e+00  -1.228216458301e+02 
   1623     2   23.888486095654   23.673979705015    2.925089960978    3.106250000000  -4.791683725314e+00  -3.123557076883e+01  -6.212797332555e+00 
    487     1   27.923427205936   27.833582074340    2.590017531493    2.726250000000  -3.522530558368e+01  -7.719214051962e+01   5.103675270826e+01 
   1861     2   31.811214569270   23.409314177818    2.121731478296    2.210415000000   3.517031751653e+00  -1.243932415283e+01  -2.004512997344e+00 
    877     1   35.716671454581   25.692382245248    2.150408023041    2.328750000000  -6.294536626665e+01   6.387779909093e+01   1.720455944538e+00 
   1031     1    2.196451095868   31.574216716428    2.196280072836    2.196250000000  -2.635642628429e-16   0.000000000000e+00  -2.152165530718e+00 
   1313     1    6.123493792972   32.827701171361    1.931246902691    1.931250000000   4.967221557739e-02   4.358921008678e-02  -1.493268114647e+00 
   1474     1    9.538513921581   31.715714359200    1.666257645727    1.666250000000  -1.150963859456e-16   0.000000000000e+00  -9.398333137828e-01 
   1867     2   11.764280062780   33.574017218829    4.242277989491    2.210415000000  -1.865504075558e+01   1.069243903970e+00   7.652949684683e+00 
    774     1   16.298197041444   30.651678815974    3.707676005082    2.461250000000  -3.709440309893e-16   0.000000000000e+00  -3.028987878363e+00 
   1339     1   20.273125872407   30.054870867116    1.933287322090    1.931250000000  -1.792077098690e-16   0.000000000000e+00  -1.463342001905e+00 
    448     1   25.923403017006   33.321156862635    2.604156779921    2.726250000000   1.332899147004e+01  -9.613112621242e+00  -3.075240487419e+01 
    416     1   23.463247126449   29.295702729331    5.242970609123    2.726250000000   3.374318628991e+01  -7.606878680410e+00  -3.027489771580e+00 
    225     1   32.320562678851   32.766842438065    2.902089873422    2.991250000000  -6.365778202633e+01   4.855451817391e+01  -6.344397411775e+01 
   1349     1   36.144113672683   29.937725087039    1.880419658012    1.931250000000  -1.539489151910e+01  -2.610995559022e+00  -8.068808474578e+00 
    632     1   38.129878131811   33.949754008989    2.430910094325    2.593750000000   5.112841409165e+00   3.993689508690e+01  -3.234729836509e+01 
   1561     2    3.608551161873   37.917419594174    3.502436683422    3.643750000000   1.106482521165e+01  -1.247518929723e+01   1.906037712842e+01 
   1212     1    8.848552283681   35.746695605035    2.049229831877    2.063750000000  -4.613242053567e+01  -5.986482724373e+00   1.039175861876e+01 
   2031     2    8.497187114729   39.618755711554    1.803641251914    1.852085000000  -1.668220868742e+00   1.685583621147e-01   5.512227443978e-01 
   1167     1   15.170374658889   34.659528047887    1.931779903611    2.063750000000  -2.179298103182e+01  -9.934242935153e+00  -1.788966022432e+00 
   1738     2   12.601143769195   38.406663049021    3.424184999810    2.747915000000  -2.186205878248e+01  -2.364370697387e+01   6.751172240018e+00 
    126     1   20.281622969558   35.150552837628    3.141654813397    3.256250000000  -3.322185433150e+01  -5.660888229322e+00  -4.242948491685e+01 
   1219     1   24.417025549216   38.154028726070    1.938332353596    2.063750000000   2.984097556910e-01  -6.058286547661e+00   1.476466424763e+00 
   1613     2   28.319824751749   37.926589264614    5.456434248766    3.285415000000   1.639352907427e+00  -2.581960608717e+00   8.475294978642e+00 
   1994     2   39.455278758419   38.417945612849    1.690502928907    1.852085000000   1.303081477177e+00   1.892942752223e+00   4.031957872212e-02 
    406     1   35.037509200949   37.193594987489    5.044260751990    2.726250000000  -1.433109602262e+01   4.059426368214e+00  -4.275969425633e+01 
     57     1    4.448910210021    3.437180749200    7.113295574597    3.521250000000  -2.722025042074e+01  -3.840655869339e+01   8.787283139769e+00 
    173     1   11.170142837226    3.132541465795    7.403189871807    3.123750000000   3.945277242374e+01   4.007107876657e+01   4.787361330532e+01 
   1058     1   16.325950771962    2.190758737697    8.177279438524    2.196250000000   2.079550661990e+01   2.517918322209e+01   7.079063220463e+00 
   1928     2   20.404519051606    2.017513814165    9.202991572492    2.031250000000   1.457146739306e+00   7.534402582096e-01   3.556917170034e+00 
    987     1   27.650262103922    2.221346913334    5.959846354040    2.328750000000  -3.209952479578e+01  -1.153215992544e+01  -8.810585948639e+00 
   1135     1   24.618322477720    2.115800418670    9.304686829093    2.196250000000  -5.718426527455e+00  -5.287976493128e+00  -1.410147403926e+01 
   1966     2   30.820823132296    2.011080223362    8.828872291838    2.031250000000  -8.669894791121e+00   8.038370602299e-01  -6.567197657889e+00 
    121     1   36.448472264717    3.204242605670    5.947074131771    3.256250000000  -7.584663426876e+01   1.329995977087e+01   2.036532601039e+01 
   1942     2    5.462876589850    8.815186596854    7.143833046331    2.031250000000  -2.221704457072e+00  -4.389400326472e+00   6.865800589192e+00 
   1223     1    2.067293862434    8.027450274016    9.305123737239    2.063750000000  -2.186817085920e-16   0.000000000000e+00  -1.785671662591e+00 
    660     1    9.417984105298   11.271005387678    8.180313005931    2.593750000000   1.449241495400e+01  -3.249034413870e+01   1.628080312696e+01 
   1770     2   13.472599398690    8.334734275651    7.060251881088    2.568750000000  -9.091061813873e+00  -9.579709625919e+00  -3.706066445479e+00 
    862     1   20.156491935940    6.052206553222    7.599423377076    2.328750000000  -1.792509103545e+01   9.426136559385e+00   5.918415046817e+01 
   1418     1   21.908708087947    9.677442966368    6.728237327793    1.798750000000  -3.795043195481e+00  -1.030561406689e+00  -7.573186122450e+00 
   1654     2   25.536700334893    6.716536852765    7.193392997130    2.927085000000  -1.554315177281e+01  -9.007119745947e+00  -1.292514621092e+01 
    203     1   30.911963899332    7.671272861579    9.324600332792    2.991250000000  -2.377281840355e+01  -2.903453392741e+01  -3.210974890968e+01 
    155     1   36.876833683426    8.680374845698    9.048325973555    3.123750000000  -1.144846901360e+02   3.496731940866e+01   5.211212879907e+00 
     29     1    3.681811753464   13.860995213971    8.671325753618    3.653750000000   9.757936410035e+01  -3.258134125546e+01   3.188814466328e+01 
   1046     1    8.846628625174   16.309744996441    9.944935132170    2.196250000000  -2.635642628429e-16   0.000000000000e+00  -2.152165530718e+00 
    779     1   12.392612819949   15.338531458426    7.039371002557    2.461250000000  -3.709440309893e-16   0.000000000000e+00  -3.028987878363e+00 
    215     1   26.350429539401   12.427215466410    7.644968404920    2.991250000000   2.530347267166e-01  -2.635644187848e+01  -3.893518944768e+01 
   1485     1   27.217021395772   15.685007219186   10.922139447273    1.666250000000  -1.150963859456e-16   0.000000000000e+00  -9.398333137828e-01 
   1538     2   32.933778912681   14.595978721404    7.908484601701    4.002085000000  -4.032535464718e+01  -4.328977922164e+01  -1.131741215082e+01 
   2007     2   39.228915996418   14.907710780174    6.510689043142    1.852085000000  -5.207520813288e+00   2.237795864930e+00  -2.321387302011e+00 
    764     1   38.244885676623   16.872742054748   10.623544161714    2.461250000000  -5.698873984627e+00  -3.369574135670e+01  -5.846867341430e-01 
   1709     2    2.643730600940   21.349970006267    5.809652589985    2.747915000000   7.733438473195e+00  -1.019878532365e+01  -6.617982908152e+00 
   2023     2    9.838175494424   20.402028443298    9.297405306076    1.852085000000  -6.094299742608e-17   0.000000000000e+00  -4.976373389333e-01 
    799     1   13.402458597881   20.426013756710    6.646414106715    2.461250000000   1.277414288837e+00   1.187494268746e+01  -1.171635009664e+01 
   1186     1   16.847060810539   17.926749621503    8.036606811573    2.063750000000  -1.229857388372e+01  -1.098514634196e+01   1.108915554308e+01 
   1399     1   17.311168691945   22.068543257136    7.673866880659    1.931250000000  -4.585784333933e+00  -8.433149980789e+00   2.078763283462e+01 
   1077     1   22.244811268512   21.656444260477    7.296077908427    2.196250000000  -1.096765058814e+01  -1.069090742571e+01   1.405552234174e+01 
   1960     2   19.623789442118   19.981751005169   10.063079318456    2.031250000000  -2.363146387564e+00  -6.619873670046e+00   5.891681669498e+00 
    209     1   27.149933918661   18.157114956150    6.484461929575    2.991250000000  -6.549933145568e+01  -2.590035732510e+01   5.334052085007e+01 
    892     1   31.465560747539   21.104289244840    8.008858174926    2.328750000000  -2.429126074747e+01   6.903757604153e+01  -1.198265392809e+01 
   1790     2   38.721084806691   19.261261437146    6.380902500971    2.568750000000   2.568167665042e+00  -7.064744928037e+00  -5.441947365327e+00 
   1172     1    2.056423363007   24.687293596133    9.227642013524    2.063750000000  -6.816110102809e-01  -1.265523108683e+01   9.463700723386e-01 
    742     1    4.091674872405   27.321507365783    6.204712463166    2.461250000000  -1.606088088360e+00  -2.453447121754e+01   2.075933318782e+01 
   1095     1    5.606979416851   26.738454142963   10.539726550489    2.196250000000   3.131703097606e+00  -2.445240840898e+01   2.096160119725e+01 
   1784     2    7.322864471565   23.739490724994    7.390018736670    2.568750000000   5.188546219331e+00  -5.649952254669e+00   6.244640080082e+00 
    985     1   11.724861113537   24.752188248003    5.721952145037    2.328750000000  -1.083988751774e+01  -1.421685424959e+01  -1.063126771904e+01 
    512     1   14.987563962869   25.738489695577    9.300374208704    2.726250000000  -2.488286100654e+01  -6.831949823257e+01   1.741830147619e+01 
   1064     1   21.185844337476   25.813918000340    7.722324328166    2.196250000000  -7.508233089931e+00   4.782692298293e+00  -9.692739103949e-01 
   1714     2   26.415540740425   25.183538877548    7.866847153110    2.747915000000   1.574649536290e+01  -1.204481018882e+00  -1.528045596053e+01 
   1578     2   32.403887395640   26.768101043246    6.569905957171    3.464585000000  -5.829383989656e+01  -5.899784753844e+01   2.537573580044e+01 
    953     1   36.405918302795   23.068449657160    8.266078425658    2.328750000000   1.055778633314e+01  -4.253349524783e+01   1.570537554695e+01 
    500     1   38.157304680681   27.789028434749    8.775984234967    2.726250000000  -5.041250004305e-16   0.000000000000e+00  -4.116493022980e+00 
   1873     2    2.210406409123   30.527565356758    8.965914483753    2.210415000000  -3.707333156389e-02  -3.633771116387e+00   1.091739314355e+01 
   1097     1    4.598011680733   32.509840795517    5.753300508541    2.196250000000  -1.097247305801e-01  -2.720267251304e-01  -9.874647818358e-01 
   1590     2    9.285235682161   29.663736271613    7.476852883820    3.464585000000  -1.958125651116e+01   1.609456328209e+01   3.147086195248e+01 
   1553     2   18.872462338710   30.980879672635    9.624971814596    3.822915000000  -1.009214036027e+01   1.914280383335e+01  -1.276558334623e+01 
    960     1   28.370191025980   30.895878914399    6.427752238002    2.328750000000  -7.364750735927e+00  -2.834284175304e+01   1.615605890461e+01 
   1708     2   24.077989143293   34.273214572425    7.521024766503    2.747915000000  -2.879705896601e+00   1.511320224591e+01  -6.014762690630e+00 
    145     1   25.586679829919   29.946484754776   10.950195381701    3.123750000000  -5.321749130750e+01   6.077116626129e+01  -2.170603916993e+01 
   1126     1   28.601845013223   34.231063059495    9.337060598993    2.196250000000  -5.268003006000e+00   5.382172428537e+00  -7.017942476089e+00 
    977     1   30.889150121121   30.599797992315   10.380810876468    2.328750000000  -3.200785556063e+01   2.245554012246e+00  -7.991624077420e+00 
   1801     2   34.924842263261   31.787862661712    8.283622209086    2.389585000000  -1.412199174520e+01   4.212992542901e+01  -2.862437722458e+01 
    354     1   39.875219116269   33.034739449168    7.371762043159    2.858750000000   1.981491628475e+01   9.146497290581e+01  -4.178608520707e+01 
    341     1    2.807521762552   35.500368571345    9.419212638344    2.858750000000   3.422501089238e+01   8.679911598039e+00   1.989549814817e+01 
    706     1    8.680486852531   36.627272456599    6.492459808736    2.461250000000   1.609232144098e+01  -4.443603327905e+01   3.803204135322e+01 
   1225     1    5.765018717771   39.498766733148    8.377667259027    2.063750000000  -7.300389379961e-01   1.500710567390e+01   8.832490811073e+00 
    849     1   15.747635586375   34.909106004610    6.132322469573    2.328750000000  -7.258100130828e+00  -1.970495398808e+01  -2.974462998785e+00 
    236     1   12.354408909096   34.821526780622    9.964539226636    2.991250000000   4.996939621470e+01  -3.469375243213e+01   5.371017845502e+01 
    505     1   15.847334945156   39.670823100274    7.571222038490    2.726250000000   2.747182378080e+00  -1.229292228166e+01  -3.815607038720e+01 
   1387     1   21.445206563574   38.034569735731    8.423909571934    1.931250000000  -1.582566682077e+00  -3.093129343611e+00   3.332766533120e+00 
    968     1   25.379518802128   38.375496731425   10.139346114305    2.328750000000  -8.594588864304e+00   9.123432131717e+00   1.267765752588e+01 
   2059     2   31.627021001912   34.313743474562    7.123590359810    1.672915000000  -2.881479896605e-01   4.486354664899e+00  -2.925312415781e+00 
    172     1   32.645004586173   38.926605318859    9.913538947668    3.123750000000   2.638519477379e+01  -2.614546880405e+01  -9.503967434705e+00 
    627     1   37.898136048849   36.962455379966   10.397681442263    2.593750000000   3.061052132095e+01   2.787149053533e+01  -3.686083978865e+01 
    608     1    2.575967848731    2.537022137838   12.804702409581    2.593750000000   1.466584557411e+01  -9.152010107879e+00   2.565731327049e-01 
   1271     1    8.990506890129    2.063760179221   13.187005282512    2.063750000000  -6.760409795391e+00  -2.618550415116e+00   4.719023114017e+00 
    281     1   13.954560640047    2.928914384687   12.783800051026    2.991250000000  -2.894233586034e+01   1.179869875405e+01   1.864643610176e+01 
   1820     2   21.924501775267    2.365315400017   13.315646898777    2.389585000000  -1.020446712163e+01   1.106172269571e+01  -3.963788289868e+00 
     32     1   28.168175199668    3.551684427162   13.580676489174    3.653750000000  -7.357383675314e+01   1.098542307690e+01  -8.858719049767e+01 
    655     1   34.276668515883    3.746300541026   11.226002694346    2.593750000000  -9.161287576560e+01  -4.156222011207e+01  -1.182859369259e+01 
   1677     2   39.591527625984    2.885041104033   12.089987570765    2.927085000000  -4.275096261522e+01   1.012613137253e+01   1.674040769902e+01 
   1082     1    2.141202216078    8.977984747491   14.087453627132    2.196250000000  -1.472893357649e+01  -3.057755623013e-01  -5.779633480997e+00 
     40     1    7.180635363166    7.244444139108   12.149134646036    3.521250000000  -7.446108812839e+01  -6.128494152986e+01  -5.648498049586e+00 
   1344     1   14.532800950401    7.513653592817   11.287833301713    1.931250000000   8.589658516925e+00  -6.828181416728e+00  -5.261350588883e+00 
    403     1   15.292667985048    7.678051879506   15.922938470554    2.726250000000  -5.041250004305e-16   0.000000000000e+00  -4.116493022980e+00 
   1731     2   12.275025261869   11.351238377858   12.558995013085    2.747915000000   8.328067265684e+00  -5.443749073893e+00   8.964051535682e-01 
   1841     2   18.571574871187    5.747221078532   12.041862148277    2.389585000000  -1.308906178882e-16   0.000000000000e+00  -1.068803004910e+00 
    947     1   23.372888795890    6.573624781674   11.830446981387    2.328750000000  -9.733327866998e+00   4.408142564568e+01  -2.047958326583e+01 
    378     1   27.929027803506   11.057704211357   12.938285187461    2.858750000000   4.635705697816e+00  -5.754589049681e+01  -3.357338259050e+00 
   2091     2   24.830544641868    9.845169514099   15.934705736017    1.672915000000   2.638737657107e-01  -7.397751049139e-01  -2.730721984143e+00 
   1051     1   33.557065458813   10.675853743033   12.598538274487    2.196250000000  -1.232135597232e+01  -6.855755776400e+00   4.841956298330e+00 
   1154     1   31.346500695708    8.068635087037   15.220718822698    2.196250000000  -1.110254690796e+01  -1.849398922175e+01  -6.368863000537e+00 
    798     1   37.010881200640    7.308703571180   14.334607571847    2.461250000000   3.106107431930e+00   5.160559828550e+01  -1.557391106373e+01 
   1337     1   39.330777991957   11.161326385076   13.511899911962    1.931250000000   1.494799428863e+01  -1.020904882329e+01  -1.111978697460e+00 
   1526     2    5.289133181371   14.060106685892   16.122072178951    4.181250000000  -5.866786558472e+00  -2.282222553156e+01   2.659438457141e+01 
   1509     2   19.971422681057   13.161876590337   12.295311040636    5.077085000000   1.482376209674e+02  -2.471335726697e+01   5.129558505248e+01 
    539     1   26.863785988309   15.753301688352   15.278108017643    2.593750000000  -2.656302177790e+01  -5.309150332701e+01   4.446492372189e+01 
    716     1   31.654700559555   14.614169561139   14.104722136257    2.461250000000  -9.861585115315e+00  -2.432425274048e+01  -1.877977273556e+01 
   1335     1   36.391492720833   13.576449167929   12.843724999034    1.931250000000  -1.114485629369e-01  -8.688923626440e+00  -1.410428912066e+01 
   1746     2   38.508247587393   16.390250335012   15.544886209870    2.568750000000  -5.857521396596e+00  -1.096559867472e+01  -1.039136245994e+00 
     48     1    4.553699659324   20.266316384560   11.486481697956    3.521250000000   2.342854887713e+01   1.685938872024e+01  -2.694243435433e+01 
   1211     1    9.715564856177   18.838311027228   13.299865658644    2.063750000000  -2.186817085920e-16   0.000000000000e+00  -1.785671662591e+00 
    208     1    7.959291810591   22.851441646255   16.140819264150    2.991250000000  -6.693805467209e+01   3.828856853349e+01  -1.751930577060e+01 
    117     1   14.699000656665   20.522606817187   12.087926756629    3.256250000000  -7.789343572501e+01  -1.112347571249e+02   3.061499201364e+01 
   1238     1   16.792646903438   18.391919936518   16.365044281825    2.063750000000  -1.286705449503e+01  -3.168963927194e+01   6.432012529526e+00 
   1993     2   19.414101892798   19.908115178325   13.879099406246    1.852085000000  -2.452348321094e+00  -9.518189415292e+00   4.166667462795e+00 
   1592     2   24.749601953571   20.181930062469   11.909383285566    3.464585000000  -3.675953499041e+00  -8.518828065426e+00   3.800253017592e+01 
   2046     2   28.396305255723   21.812195624580   15.142737662070    1.672915000000  -4.491203081345e-17   0.000000000000e+00  -3.667345625263e-01 
    601     1   30.706868504325   19.277362831922   12.437717926844    2.593750000000  -2.752651948354e+01   9.314418315038e+01  -4.338313547507e+01 
   2045     2   34.656919681690   17.157709140666   12.714212298700    1.672915000000  -4.491203081345e-17   0.000000000000e+00  -3.667345625263e-01 
    127     1   36.539781197295   21.654585819123   13.446327884012    3.256250000000   1.201665986218e+02  -5.528514524666e+01   1.046510553579e+02 
   1348     1    1.789311028216   27.772756673892   12.066959039011    1.931250000000  -1.526775198057e+00  -8.978559323019e+00   8.716331789270e+00 
   1735     2    5.012519282510   27.714494350029   15.220474334644    2.747915000000  -4.975571776042e+00   5.642886585556e+00   9.544481916945e+00 
   1323     1    1.896920779248   24.171293218281   14.077841587614    1.931250000000  -4.968095014105e+00   6.930747896404e+00  -1.346402214852e+01 
    549     1   10.240311041449   24.866462557390   11.485543799877    2.593750000000   3.792496435193e+01  -2.277488621642e+01  -5.362959821199e+01 
   1695     2   10.306167013520   28.007167006391   16.047528113948    2.747915000000  -5.164634426648e+00   2.358839878929e+00   2.659463693048e+00 
   1147     1   14.634777177354   25.790961907876   14.237470924116    2.196250000000  -2.635642628429e-16   0.000000000000e+00  -2.152165530718e+00 
   1671     2   19.529359355927   24.400633422406   12.253592741157    2.927085000000  -2.337512998597e+01   6.611128323711e-01   9.577584024747e-01 
   1660     2   25.074224095706   25.594481648135   15.122717338770    2.927085000000  -9.136473020772e+00   1.105774818454e+00   1.211093619748e+01 
    376     1   30.083132389193   24.664969793971   12.045455681500    2.858750000000   1.084271186424e+02   4.900281119708e+01  -1.540674253770e+00 
    914     1   34.272613395471   27.746073621595   12.010901521606    2.328750000000  -3.142026208869e-16   0.000000000000e+00  -2.565659103553e+00 
   1194     1   34.705199746663   28.256343092450   16.356340942270    2.063750000000  -2.186817085920e-16   0.000000000000e+00  -1.785671662591e+00 
   1150     1    2.178729077425   32.118973196324   13.104233544750    2.196250000000  -1.730439767358e+00  -6.189407333339e+00   5.137987375434e+00 
   2080     2    4.965471555720   33.592226493861   15.774172059049    1.672915000000  -4.491203081345e-17   0.000000000000e+00  -3.667345625263e-01 
    979     1    6.519081396428   31.331804909725   12.123596278198    2.328750000000  -4.635520418873e+00  -3.263376802206e-01   1.017769102975e+01 
    135     1    9.987420171657   33.893269098482   15.490612530848    3.256250000000   3.974718829850e+01  -6.874653172505e+00   2.742907874921e+01 
    591     1   13.084878149823   29.800197357413   12.014996382870    2.593750000000   2.119966227561e+00  -2.789454522706e+01   2.319723197460e+01 
    681     1   14.900871336229   31.138278143125   16.370873710970    2.461250000000   1.243073472194e+01  -8.902188446373e-01   2.073580808808e+01 
    574     1   18.789732268786   34.042173664326   15.146343569012    2.593750000000  -2.061594626121e+01  -2.455364892958e+00   1.876687190999e+01 
    546     1   24.184431169072   31.066424682102   16.177499073676    2.593750000000  -1.840913516469e+00   5.554737851955e+00   1.456370452981e+01 
   1609     2   34.072516718058   33.800771605468   13.456796516495    3.285415000000  -1.374199610157e+01  -5.965789314359e-01  -2.500491711981e+01 
   1008     1   29.636637469203   29.155397421239   14.255293501348    2.196250000000  -5.252988002449e+01   2.808146782778e+01   2.345001609527e+00 
   1042     1   38.275880971803   31.392502141158   15.824489928930    2.196250000000  -2.421767196036e+01   4.513465953059e+00   3.049558936150e+00 
   1796     2    2.538930505753   37.106140210391   14.528629422998    2.568750000000   3.375265758950e-01  -1.811776257469e+00  -1.716825407930e+00 
   1493     1    3.565952023146   39.548124195286   11.227521942036    1.666250000000  -5.693207472563e+00   3.553457954433e+00  -1.122838289102e+00 
    687     1    7.484633728814   36.777425840530   11.411455958665    2.461250000000   1.629968287889e+01   4.243334268359e+01   3.631281373986e+01 
   1830     2   18.314054426875   37.122997626960   11.258430581406    2.389585000000   2.589046134875e+00  -6.894799693340e+00   3.330219165901e+00 