LAMMPS data file

  6638  atoms

   3 atom types

  0.0000000000000000000  50.0000000000000000000 xlo xhi
  0.0000000000000000000  50.0000000000000000000 ylo yhi
  0.0000000000000000000 100.8333333333333285964 zlo zhi

Atoms # sphere

    1    1  5.94828  4.85000   45.595754143347634    3.106543945718721   69.412060776873872
    2    1  4.81034  4.85000   45.835427706444420    3.667364143789964   97.278398227692932
    3    1  4.81034  4.85000   19.463966977525171    3.361370850991903   25.849670823042228
    4    1  4.81034  4.85000    5.554601390210218   20.814551482798901   52.197329532407068
    5    1  4.81034  4.85000   24.205213336964555   22.781168335352003   52.026498083623601
    6    1  4.70690  4.85000   34.462281102289104   36.043225157844816    3.593700971452654
    7    1  4.70690  4.85000    2.718057643005488   26.464395129150883   53.296360451031667
    8    1  4.70690  4.85000   38.676508119059292   29.699051630799502   90.445054213863017
    9    1  4.70690  4.85000    3.034926372432059   21.477394837989145   78.640023644465728
   10    1  4.70690  4.85000   16.770030170945951   15.460611874686677   48.284263622697814
   11    1  4.70690  4.85000   25.495150142876241   23.513383548911936   87.990133192674335
   12    1  4.70690  4.85000   17.331941835906068   30.147025848846077   97.078861586797260
   13    1  4.70690  4.85000    3.179458922525864   41.721676306530767   82.517262776837029
   14    1  4.70690  4.85000   15.053299443311206   44.803815365123192   16.559116168102403
   15    1  4.70690  4.85000   40.660245070338902    6.220935510687143   43.520173267695554
   16    1  4.70690  4.85000   39.825236791454628   29.264710983841209   38.201331072986967
   17    1  4.70690  4.85000   35.404606955119277   17.381865207553226   20.339993351627580
   18    1  4.70690  4.85000   33.806440933822479   37.723247612078517   56.846643495198670
   19    1  4.70690  4.85000    2.911378743403729   14.512484647494455   68.682052925782074
   20    1  4.70690  4.85000   27.542805540735760   40.386761548572572   84.402550292826234
   21    1  4.70690  4.85000    6.414121541890918    9.897016749534334   76.736492003292383
   22    1  4.70690  4.85000    6.840340614586976   32.681566388705825   58.489895333422417
   23    1  4.70690  4.85000   40.874607934613913   12.365243081343930   27.888524938332520
   24    1  4.70690  4.85000   11.213003670650352   38.853658415649718   66.853060584173392
   25    1  4.70690  4.85000   35.854133663277850   31.858034536583627   45.681051439195379
   26    1  4.70690  4.85000   43.514451366812295    3.268171695644955    7.458738462560483
   27    1  4.70690  4.85000    8.590011180767346   11.962659362309651   89.208118537972737
   28    1  4.70690  4.85000   23.695276612271396   20.380061393056913   15.348002294322933
   29    1  4.70690  4.85000   13.959561135181762   21.853061719958216   74.225478380954996
   30    1  4.70690  4.85000   25.391761820599374   34.901346611664586   70.841159814349467
   31    1  4.70690  4.85000   13.926205762912511   17.093708545121004   38.732467215491170
   32    1  4.70690  4.85000   47.000804170309344   27.777068164094871   52.225776324807235
   33    1  4.70690  4.85000   46.219376418118941   28.937986388775020   96.911572705746835
   34    1  4.70690  4.85000   23.154249932284085   42.226455209729195   68.689545376266238
   35    1  4.70690  4.85000   41.175736961245839   10.804041084447382   59.725258810181728
   36    1  4.70690  4.85000   33.193276236454153    5.403650845082640   55.706357940661029
   37    1  4.70690  4.85000   35.310691673531309   24.296824103845548   36.225042847641582
   38    1  4.70690  4.85000   14.345531187801626   16.706035919552402   13.857330419247008
   39    1  4.70690  4.85000   24.038519944689618   38.471023575284093   33.502538038206026
   40    1  4.70690  4.85000   25.370498910313191   20.917631146093491   25.218423097518208
   41    1  4.70690  4.85000   43.037784591655473   43.749627562789705   60.735724703610359
   42    1  4.70690  4.85000   20.292774100967360   29.840343434225353   44.034469326623004
   43    1  4.70690  4.85000   27.009559044504375   44.338794882187550   88.578990068046707
   44    1  4.70690  4.85000   15.790087632131339   11.826766363013803   63.394903026976799
   45    1  4.70690  4.85000   40.470255583580617   28.858062772769593   33.463734617215962
   46    1  4.60345  4.85000   11.077157030634819   33.000738370764445   40.234474137148467
   47    1  4.60345  4.85000   21.030512894735139   31.638962850215446   13.876936084318579
   48    1  4.60345  4.85000    3.365250533764095   44.713882785872798   86.608084343148448
   49    1  4.60345  4.85000   11.340654685138421    2.616223237684411   36.296637680302858
   50    1  4.60345  4.85000   37.983075240881995   45.441574783516892    3.009963817556325
   51    1  4.60345  4.85000   18.216848238785420   15.292664378004382   42.223039581438144
   52    1  4.60345  4.85000    7.797348806754019   17.816986242758656   21.714462849353254
   53    1  4.60345  4.85000   46.399552533006528   41.348284132978328   38.437151301410388
   54    1  4.60345  4.85000    9.949591089334746   11.480251448393492   62.899825184223047
   55    1  4.60345  4.85000   30.812159295805603   22.334712793717202   93.147897517515347
   56    1  4.60345  4.85000   32.147471501927612   31.087346483635319   52.134331130337998
   57    1  4.60345  4.85000   41.352585245027790   14.043889445547958   32.976996047516401
   58    1  4.60345  4.85000    6.652217617988028    7.420187602149243   22.520360031091705
   59    1  4.60345  4.85000   16.414582835363529   23.669140860504527   40.289308017400280
   60    1  4.60345  4.85000    2.306265745949934   21.427786536779369   96.975341470890726
   61    1  4.60345  4.85000   16.997847365296671   39.867540142331073   71.143610967301328
   62    1  4.60345  4.85000   11.994288525421201   30.921486859155063   79.784794435342818
   63    1  4.60345  4.85000   17.657067464809000   40.315704899663729   11.587388992985307
   64    1  4.60345  4.85000   12.742545614960541   43.471765502959428   20.451598885183198
   65    1  4.60345  4.85000   41.203384850392027   42.626764888378531   32.604020925420777
   66    1  4.60345  4.85000   46.805350320461663   19.550690503804688   39.503904768048173
   67    1  4.60345  4.85000   35.787882508193668   27.877822987036620   41.207895030556237
   68    1  4.60345  4.85000   38.568472407474147   42.402093608086744   57.651514828178058
   69    1  4.60345  4.85000   44.083611379364577   43.086988919126881   97.103721505772924
   70    1  4.60345  4.85000    7.749988316532988   37.838672436193626   83.016196685415068
   71    1  4.60345  4.85000   46.569336543459158   31.200233258061868   87.250245518127841
   72    1  4.60345  4.85000   40.606516464232200   34.991954748944558   74.748340018820173
   73    1  4.60345  4.85000   19.111537065172300   25.651200259600234   30.687983474534775
   74    1  4.60345  4.85000    7.338739383818378   15.963211754548620    4.235340134937973
   75    1  4.60345  4.85000   31.754128716799187   35.224045362835085   97.188010882556668
   76    1  4.60345  4.85000   10.146764889551854   16.356455573489587   73.251942694036231
   77    1  4.60345  4.85000   23.220749858662650   21.172851591472991   96.310748149053637
   78    1  4.60345  4.85000   16.888484722283025   17.030094297285846    3.704034610973943
   79    1  4.60345  4.85000   39.633947954673687   44.823394863988469   77.020552946862679
   80    1  4.60345  4.85000   19.161528635935170   12.893484597531337   89.463541169053912
   81    1  4.60345  4.85000    3.084208355174415   13.302426760169947   83.078666310127403
   82    1  4.60345  4.85000   15.859181406714288   18.809003150321438   24.303627580042562
   83    1  4.60345  4.85000   22.138268496239455   17.691948002705026   84.222686374960574
   84    1  4.60345  4.85000   21.561707365088054   33.709654264755535   66.868539258897130
   85    1  4.60345  4.85000   30.312154297523055    7.721670267331195   65.329774706702452
   86    1  4.60345  4.85000    6.060418938138958    9.366209166794667   68.237970873289001
   87    1  4.60345  4.85000   41.302257055404219   26.819242465545191   62.351598872935028
   88    1  4.60345  4.85000   16.096502785188534   19.143481386900984   81.005672035835545
   89    1  4.60345  4.85000   35.821171681149821    9.315837540708198   48.883414410797563
   90    1  4.60345  4.85000   19.895186312501810    6.765022056790077   43.384231342383430
   91    1  4.60345  4.85000   30.654687150368460   43.782630513870387   22.268740187857912
   92    1  4.60345  4.85000   34.931317838442226   23.984851533801866   25.755866866229862
   93    1  4.60345  4.85000   44.574041495568139   25.333106867719568   10.812756461656576
   94    1  4.60345  4.85000   44.987637242122432   26.003357286749797   21.255062364525791
   95    1  4.60345  4.85000   37.678900977835070   32.059166449102761   56.174768953265485
   96    1  4.60345  4.85000   23.703443792299208   34.671468440247544   88.796266134313768
   97    1  4.60345  4.85000   19.661559445917955   13.140133008416271   54.758824306104550
   98    1  4.60345  4.85000    6.551960870616059   28.534041764901612    3.724561526542592
   99    1  4.60345  4.85000   18.785955766144863   27.945089772658580   24.982427090274985
  100    1  4.60345  4.85000   37.408178975065560   24.281058324146731   57.079314866801084
  101    1  4.60345  4.85000    3.553623590404700   29.074547166077853   72.362623975754488
  102    1  4.60345  4.85000   11.767423321703546   28.287338957619532   46.297020872401625
  103    1  4.60345  4.85000   45.652487173095771   19.137089004954863   76.281543318372343
  104    1  4.60345  4.85000   28.154375927604640   42.578932559274932   78.106444408569473
  105    1  4.60345  4.85000   11.375534623627104   23.586731123847972   95.011900348481646
  106    1  4.60345  4.85000   19.734914938920351   10.974197806010640   48.241475249808857
  107    1  4.60345  4.85000    3.613967209388245   41.514994568970593    5.459194968071541
  108    1  4.60345  4.85000   35.416710204572375   38.768909901629542   42.517400586736798
  109    1  4.60345  4.85000   27.013171087682668   17.044700650329034   93.397805265648415
  110    1  4.60345  4.85000   28.691267583693822    6.055761974273132   17.370970467175919
  111    1  4.60345  4.85000   42.243036014397894   21.389469033668941   45.824644802491662
  112    1  4.60345  4.85000   35.433937365785255   35.559026185381569   90.005083643526902
  113    1  4.60345  4.85000    6.515607832462989   15.883358217662678   46.145365774182416
  114    1  4.60345  4.85000    6.030425131399356   34.191272248519986   78.141750418149599
  115    1  4.60345  4.85000   41.040466984960290   36.226741213225885   24.560761562588507
  116    1  4.60345  4.85000   10.823572757446268    6.245249609348664   16.986495717173295
  117    1  4.60345  4.85000   27.829474987025311    5.022641159909051   90.870647097330348
  118    1  4.60345  4.85000   41.240639146018680    6.381777198739690   64.110528578807489
  119    1  4.60345  4.85000   35.969022404777178   39.457509169083039   97.437616881441414
  120    1  4.60345  4.85000   43.361294462863306    5.637755789325870   49.654754949479901
  121    1  4.60345  4.85000   37.616323525867486   41.037556074051864   21.819104183374524
  122    1  4.60345  4.85000   42.454530159353851   17.040842575150943   36.332817475610547
  123    1  4.60345  4.85000   18.098394439580936    6.188523515573948   63.147952856621302
  124    1  4.60345  4.85000   17.487216958503119    6.026886941088165    7.769765098237242
  125    1  4.60345  4.85000   20.472661275941476   41.780922934848562   47.036566373860957
  126    1  4.60345  4.85000   30.948322135104014   10.376195296211876   29.706307301830208
  127    1  4.60345  4.85000   44.655722795195139    6.834411504159211    4.233715201652653
  128    1  4.60345  4.85000   45.808938477905748   12.101817971580605   54.307203918298022
  129    1  4.60345  4.85000   35.689200185769003    4.295662789170695   29.918083267919329
  130    1  4.60345  4.85000   12.380218046546922   23.260163398276884   31.900406412052121
  131    1  4.60345  4.85000   36.760632055572884   25.036354641401736   63.763907425326025
  132    1  4.60345  4.85000    4.107350624863826    4.974431302351952   62.431663832937772
  133    1  4.60345  4.85000   31.765443579317928    3.843501485461903   79.486795636582556
  134    1  4.60345  4.85000   30.826788794053765   45.159527788138362   36.563034070148895
  135    1  4.60345  4.85000   25.293166362451618   25.887531182164114   76.111560593336932
  136    1  4.60345  4.85000   39.365864589089647   33.923334288533823   31.084685200672180
  137    1  4.60345  4.85000   31.070424816794073    6.896854607252366   37.407861257603173
  138    1  4.60345  4.85000   35.641103815986476    6.984813446937160   18.544491054017101
  139    1  4.60345  4.85000   44.583584574723957   44.549463772953892   89.487955470004479
  140    1  4.60345  4.85000    6.058936424920157    7.159004057829961   47.436271368131926
  141    1  4.60345  4.85000   31.705330925572849    7.246968625210819   24.474173193092078
  142    1  4.60345  4.85000   31.088292449279201   42.205877069918280   55.648669279611312
  143    1  4.60345  4.85000   32.204586447037599   17.184404410452373   35.258595982409219
  144    1  4.60345  4.85000   23.089941894836983   41.106241731081738   74.213692675478853
  145    1  4.60345  4.85000   36.168257060236122   22.140261953632418   92.318382492135100
  146    1  4.60345  4.85000   25.919249696726716   26.259636493829021    3.517012833874169
  147    1  4.60345  4.85000   42.110140519986516   41.887570982761446   26.893348978788055
  148    1  4.60345  4.85000   17.464554324715010   18.942360610067571   17.496295328907333
  149    1  4.60345  4.85000    9.816873661106495   19.865409741119088   37.172262029598087
  150    1  4.60345  4.85000   15.929740791477613   47.098427132893875   84.090754764039687
  151    1  4.60345  4.85000   17.755299016987891   33.934173203134861   36.455840598710822
  152    1  4.60345  4.85000   42.382517938898573   28.403668940333048   79.162097713978909
  153    1  4.60345  4.85000    2.765970743999287    7.164060800090774   12.056909655348136
  154    1  4.60345  4.85000   32.265082269202559   36.005474187551975   51.531222435066148
  155    1  4.60345  4.85000   44.692276595507018   46.622447867032960   46.506524518473348
  156    1  4.60345  4.85000   22.891420942719844   11.503637311365171   22.361389984798411
  157    1  4.60345  4.85000   41.533288398821554    9.989995598791314   39.093959027789523
  158    1  4.60345  4.85000   11.515605243792091    6.537568917612126   83.222382294825465
  159    1  4.60345  4.85000   15.471523281925688   27.560675748625130   81.645063610455182
  160    1  4.60345  4.85000   46.505376033183389   45.249602596251201   14.408815938185253
  161    1  4.60345  4.85000    5.424723698237444   41.443767727535239   34.055315156156603
  162    1  4.60345  4.85000   36.106513162663205    3.434466294203376   64.709020900132671
  163    1  4.60345  4.85000   37.386837255655223   16.361579401043347   60.858114608220667
  164    1  4.60345  4.85000   13.039510791104529   38.359801852126658    6.720028585647168
  165    1  4.60345  4.85000   31.111508801743472   25.177166895045531    7.188406224528281
  166    1  4.60345  4.85000   31.369021900657149   27.306402186033889   14.275188751308679
  167    1  4.60345  4.85000   30.921994060611386   41.160465827046615   12.279065624391670
  168    1  4.60345  4.85000    2.935182209719797   16.147955119428989   26.874301726659930
  169    1  4.60345  4.85000   17.448632012891625   43.908346357631522   67.554493011759703
  170    1  4.60345  4.85000    7.279748586691074   28.368564162896163   25.331293129330074
  171    1  4.60345  4.85000   45.624303566206805   21.579467265819979   67.023453343286945
  172    1  4.60345  4.85000   23.772215193799784   47.606760260710615   36.901901116009647
  173    1  4.60345  4.85000   28.902797000543270   14.168808643288475   84.348794846013078
  174    1  4.60345  4.85000   24.699915374585569   36.886821816452574    7.458181140132792
  175    1  4.60345  4.85000   15.530721312245952   11.759155137179420   17.704690519726764
  176    1  4.60345  4.85000    3.386706293353104   43.144279602568673   49.581246437707463
  177    1  4.60345  4.85000   35.619271071026347   15.954572734893286   86.808993516535850
  178    1  4.60345  4.85000   46.023509726598547   25.050770911065268   73.832476201953924
  179    1  4.60345  4.85000   26.423662013434754   43.886116066295770   58.007708317190946
  180    1  4.60345  4.85000   34.947875985360724   40.790171289612026   67.006742544372273
  181    1  4.60345  4.85000    3.540406053195162   20.011648066695898   86.708358807613337
  182    1  4.60345  4.85000   13.328898493506827    5.652252542614585   96.426650008620655
  183    1  4.60345  4.85000   42.961465609804627    9.674934097776561   83.466090137154808
  184    1  4.60345  4.85000   18.386029582758983   46.575624442933567   63.852200218757311
  185    1  4.60345  4.85000   27.676973934672251   31.189889104715277   12.450653613065111
  186    1  4.60345  4.85000    7.624558853751993   44.024256774391432   21.097666580745983
  187    1  4.60345  4.85000   31.488462370789545   45.290949216210187   43.496633030684009
  188    1  4.60345  4.85000   41.770729584750114    2.434259060429574   26.087310558923882
  189    1  4.60345  4.85000   10.505706761778736   27.162848351939868   55.240959097782010
  190    1  4.60345  4.85000   26.810796055326978   30.436281586717445   59.312546377502656
  191    1  4.60345  4.85000   24.782809400008887   16.573164559292110   76.698498062027099
  192    1  4.60345  4.85000   19.343701590973506   31.973441216221683   72.870628904487361
  193    1  4.60345  4.85000   38.374956221212692   13.267370610309698   55.725373439566944
  194    1  4.60345  4.85000   29.156202038950990   20.892662303617197   40.085620126891548
  195    1  4.60345  4.85000    3.750674756156396    3.735597568614253   43.351016949170265
  196    1  4.60345  4.85000   26.979565198430013   21.473480828387832   47.846776101799321
  197    1  4.60345  4.85000    5.214115338841777   44.645026080868512   16.925408641296382
  198    1  4.60345  4.85000   42.570154131894824   45.175374491744705   42.179157130480377
  199    1  4.60345  4.85000   19.479793030266890   19.884780621534535   63.810226201315672
  200    1  4.60345  4.85000   14.344570040564584   43.178849154761231   35.550524256531141
  201    1  4.60345  4.85000   25.193397945361721   37.622281590446534   52.125045118462118
  202    1  4.60345  4.85000   25.280314512323169   26.388619576198241   96.884083486575861
  203    1  4.60345  4.85000   41.788857908332815   47.252662001945211   71.304112210432265
  204    1  4.60345  4.85000   14.465155235022863    7.851086007106715   39.315883855900267
  205    1  4.60345  4.85000   20.329682454508056   39.741857451458451   21.202816389661098
  206    1  4.60345  4.85000   14.365367960469584   33.485984425453580   11.046706892090690
  207    1  4.60345  4.85000   21.083478346036674   17.931030584443068   90.248099858111829
  208    1  4.60345  4.85000   41.374752866673411   19.964691793555513   14.951953137497657
  209    1  4.60345  4.85000    2.688735070080735   38.447082394467785   29.376450662877030
  210    1  4.60345  4.85000   16.594113369843367   11.516791566800091   83.272662716424591
  211    1  4.60345  4.85000   20.243105454929783   47.329497889026193   88.328643846104399
  212    1  4.60345  4.85000   23.496905311936747   21.386148421607647   42.296019741112140
  213    1  4.60345  4.85000   20.582214694481614   23.105584496516492   34.678102957022730
  214    1  4.50000  4.85000   31.606316251414146   26.082846949130424   22.774663677627274
  215    1  4.50000  4.85000    6.657820047054751   36.026776368659796   33.853039904225696
  216    1  4.50000  4.85000   26.570863585810613   10.985064386173780   31.218906712026836
  217    1  4.50000  4.85000   43.511690680680388   13.160989612811935   13.462594634725118
  218    1  4.50000  4.85000   46.873070391718414   32.013045140192034   67.930940291184285
  219    1  4.50000  4.85000   46.019247065768447   37.163830455912141   48.846458391300935
  220    1  4.50000  4.85000   21.116921349694973   10.895788111942768   95.851475676744244
  221    1  4.50000  4.85000   13.381983444183811   35.007859551404273   32.824449016998997
  222    1  4.50000  4.85000    9.321310662113195   47.087025291915523   65.065979361906031
  223    1  4.50000  4.85000   10.246991681941735   24.191433448867180   79.567282261524184
  224    1  4.50000  4.85000   22.230650320668616   31.546976001369210   21.424848040772034
  225    1  4.50000  4.85000   11.003331499483437   26.035799072493671   20.028376170629954
  226    1  4.50000  4.85000   35.547430599596559   11.474982420361366   73.370351165659599
  227    1  4.50000  4.85000   47.196252535448224   47.170673430247454   68.474205432321838
  228    1  4.50000  4.85000   14.809205974281213   39.610488121961247   32.251685283542940
  229    1  4.50000  4.85000    3.137730944634073   36.968083584195711   22.003488456334747
  230    1  4.50000  4.85000   26.634345301913399   26.435364145743549   56.953801806556790
  231    1  4.50000  4.85000   46.826660358746373    4.504461524167456   39.173066172686134
  232    1  4.50000  4.85000   23.562103926989042   25.395000455534397   25.822451847737590
  233    1  4.50000  4.85000   22.528685626403174   14.890788236767385   33.635806758551752
  234    1  4.50000  4.85000   42.689247262214920    8.715050481514890   88.219572077640152
  235    1  4.50000  4.85000   20.993517747620533   23.275575007915677    8.650580461262908
  236    1  4.50000  4.85000   16.737703020692692   37.063120187366330   26.032353975479531
  237    1  4.50000  4.85000    2.408490980190546   32.869633811904457   30.833931571016091
  238    1  4.50000  4.85000    5.513694333139425   47.678578659906620   58.054553338862895
  239    1  4.50000  4.85000   41.329420829578297   18.842488987184392   64.854803265572244
  240    1  4.50000  4.85000    7.424652165814494   27.840096998457337   38.857976455483048
  241    1  4.50000  4.85000   34.084054929206090   33.175302603084184   83.031386731975687
  242    1  4.50000  4.85000   16.061545180184631   23.591422523160478   25.307297259761977
  243    1  4.50000  4.85000   11.902115208641108   15.931131125479787   32.479911856761561
  244    1  4.50000  4.85000   23.928351365038530    4.502061264861689   41.891349795973575
  245    1  4.50000  4.85000   47.612873375624758   42.872310965500688   79.967277246790147
  246    1  4.50000  4.85000   46.814221153334884   39.604966876721939   84.516190749760369
  247    1  4.50000  4.85000   29.936881331461933   27.920070983932014   48.247791666162648
  248    1  4.50000  4.85000   35.823266639911623   40.534322958144983   35.769757604848181
  249    1  4.50000  4.85000   23.328505055246939   44.676548349361035   81.061147973949403
  250    1  4.50000  4.85000   19.758565768403013    2.450728719889338   10.564286693212058
  251    1  4.50000  4.85000   12.831123098596473   28.586710558732026   96.437447916634142
  252    1  4.50000  4.85000    6.182810035377292   37.379376347575942   39.170255608726031
  253    1  4.50000  4.85000   15.982551981585498    8.368563197069980   49.427260512305089
  254    1  4.50000  4.85000   25.759459082564010   30.105582716909083   88.944946772094198
  255    1  4.50000  4.85000   22.521121380200423   28.452117678793428   84.940351448745531
  256    1  4.50000  4.85000   19.928759525139910   31.071936553130520   55.913758553975207
  257    1  4.50000  4.85000   27.031509060269705   12.975877128225346   53.456034205100920
  258    1  4.50000  4.85000   14.035272245537257   47.395545016659469   94.479021905282266
  259    1  4.50000  4.85000   44.402387244524860   22.042722252755532   80.839529977399138
  260    1  4.50000  4.85000   22.378339872421268   38.280463691155219   64.214896919737640
  261    1  4.50000  4.85000   35.958272285314266   47.180783202717940    8.531643402349413
  262    1  4.50000  4.85000   30.488178176668026    9.372353877005422   60.254901058286549
  263    1  4.50000  4.85000   42.262442489318062   22.843458045625191   18.444412510822957
  264    1  4.50000  4.85000   41.393508114285297    4.722331253313071   95.731754032725348
  265    1  4.50000  4.85000   14.458224619108202   16.929588817218949   96.440882879004278
  266    1  4.50000  4.85000   38.616715925972656   21.112053602262552    5.785194822181401
  267    1  4.50000  4.85000   30.137556578562940   45.434810782563240   64.375919258788713
  268    1  4.50000  4.85000   25.088363067672766   47.543954187020589   15.425673927574493
  269    1  4.50000  4.85000   25.861275308523695    9.034135984072153   40.297323132241530
  270    1  4.50000  4.85000   26.413449034831459   38.578242674694799   20.435085271077760
  271    1  4.50000  4.85000    6.563856433057361   31.953150644374738   87.307727734547441
  272    1  4.50000  4.85000   19.552808436629768   40.618950210611736   26.911587225855076
  273    1  4.50000  4.85000   18.233546868769842    2.486432641923720   90.459592989812478
  274    1  4.50000  4.85000   29.985795821858215   34.381989684092659   68.091008996946172
  275    1  4.50000  4.85000   46.677745737428872   11.346552427005548    8.138951210766546
  276    1  4.50000  4.85000   25.265730531862339   13.350672734957611   59.188202757501472
  277    1  4.50000  4.85000   33.327295825446356   31.371670318928366   94.168921973878469
  278    1  4.50000  4.85000   45.997252217522210   40.957735248634243   67.934523123431717
  279    1  4.50000  4.85000   34.011091786873145   36.888449262341013   18.174974281203831
  280    1  4.50000  4.85000   40.892810815094407    7.035658108518424   29.800128710343575
  281    1  4.50000  4.85000   25.078895611491223   26.322251945518154   34.416156157803975
  282    1  4.50000  4.85000   33.306465983538303   31.598424085271603   21.268493713692866
  283    1  4.50000  4.85000    4.076053909810730   26.650205443276896   44.201775659623493
  284    1  4.50000  4.85000   11.797038369563692   17.137864136680442   58.914788639747066
  285    1  4.50000  4.85000   15.064502850822198    6.036488383894207   56.876510277442733
  286    1  4.50000  4.85000   34.845820254029867    8.123186174838132    2.588244485809882
  287    1  4.50000  4.85000   18.716177980234875   37.929873209327070   75.684897104822767
  288    1  4.50000  4.85000   41.816871650527474   31.381991920994416   85.420721026337048
  289    1  4.50000  4.85000   37.531728693833841    7.590866039471195   12.232687091525088
  290    1  4.50000  4.85000   39.297596689910620    4.197212919441086   34.700390073781058
  291    1  4.50000  4.85000    9.951287332557849   34.411452531608276   48.321280050079515
  292    1  4.50000  4.85000   35.001521099937946   18.108370836302306   39.631822018392363
  293    1  4.50000  4.85000   33.322899353348660   17.907792993863271   28.262869712934435
  294    1  4.50000  4.85000   42.666882644657321   15.043605692904436   52.242356880644351
  295    1  4.50000  4.85000   16.894142661485244   12.701638258491830   24.575015353116736
  296    1  4.50000  4.85000   28.596208544514880   10.110639375281231    4.842012072647179
  297    1  4.50000  4.85000   41.114011103221770   43.254812928488988    9.624186185732544
  298    1  4.50000  4.85000   35.849534779005083   18.299564961618163   46.518290889165975
  299    1  4.50000  4.85000   31.646447207817005   26.574273732487576   58.611239567018920
  300    1  4.50000  4.85000    3.702143408437907   31.091754999124188   36.968556904585476
  301    1  4.50000  4.85000   38.583679022721896   19.374976065653236   80.327558839356300
  302    1  4.50000  4.85000    6.885085850926470   46.341411305370023   92.177201482394111
  303    1  4.50000  4.85000   34.557809169197270   13.862436363043695   16.199730093213581
  304    1  4.50000  4.85000   26.123971138095211   47.591403273769949   49.554040107168916
  305    1  4.50000  4.85000   41.828875057474427   10.511722650540815   45.083870733096688
  306    1  4.50000  4.85000   27.719119844209750   29.097334510399712   83.447311873615149
  307    1  4.50000  4.85000   22.330080065842722   41.315100354691573   14.897158469212537
  308    1  4.50000  4.85000   21.200004454529068   26.759802096543094   48.866782802784854
  309    1  4.50000  4.85000   30.854886453150719   40.474157500758338   61.863894981951177
  310    1  4.50000  4.85000   14.957754538772726   22.361987378482212   20.033769414304370
  311    1  4.50000  4.85000    4.603878927426049   45.386413374541846   44.480207505663842
  312    1  4.50000  4.85000   35.203451621388695   22.866625185267296   30.511166563326253
  313    1  4.50000  4.85000   44.871307340468839   22.169806559702572   85.723217913846753
  314    1  4.50000  4.85000   33.398482062030425   10.627454824036709   42.856750090092085
  315    1  4.50000  4.85000    8.999871383496846   13.744243735287682   16.824884932991122
  316    1  4.50000  4.85000   37.987285574610219   31.286945816695219   19.907637491295574
  317    1  4.50000  4.85000   35.538690597818146   40.063944497216056   28.485143345732059
  318    1  4.50000  4.85000   30.724877297372856   19.749675320528329   65.682867724723735
  319    1  4.50000  4.85000   36.266255081952245   12.453284750075181   80.841976099325308
  320    1  4.50000  4.85000   44.888989168669688   11.458065286577453   66.610064192350549
  321    1  4.50000  4.85000   35.786564397110652   26.576741585060606    2.666389446702158
  322    1  4.50000  4.85000   37.831325830645632   46.672139582056374   42.965713938207131
  323    1  4.50000  4.85000   26.538412453116290   32.377857198665467   35.860912072181726