LAMMPS data file

  8397  atoms

   3 atom types

  0.0000000000000000000  50.0000000000000000000 xlo xhi
  0.0000000000000000000  50.0000000000000000000 ylo yhi
  0.0000000000000000000 100.8333333333333285964 zlo zhi

Atoms # sphere

    1    1  5.94828  4.85000   38.404333682558260    3.158314251273515   87.883459544184774
    2    1  5.84483  4.85000   20.264399794642490    4.562361405384871   77.428656994685610
    3    1  5.84483  4.85000   34.800724485281975   25.570040909839548    3.049396045481293
    4    1  5.74138  4.85000   43.999362981584987   40.314416025981288   46.575515670602122
    5    1  5.74138  4.85000   35.846676702582869   35.977388233950869   47.350309356544990
    6    1  5.74138  4.85000   17.006863519338999   44.498390377903853    3.469507638052414
    7    1  5.63793  4.85000   19.003761553343224   20.984644877700838   77.032253070176964
    8    1  5.63793  4.85000   26.519453503009494   33.793842099791661   47.350790982055386
    9    1  5.63793  4.85000   27.465907289591513   17.330278432757911   38.845143218758366
   10    1  5.63793  4.85000   37.114791897037911   38.121045589241987   70.335254340131129
   11    1  5.53448  4.85000    3.604673124275284   46.130620391730474   63.477372269771543
   12    1  5.53448  4.85000    6.856117983601708   34.164920628329973   28.417817537762907
   13    1  5.53448  4.85000   46.361188295441742   30.616158110683880   60.967238286913201
   14    1  5.53448  4.85000   27.916234749402825   33.729448895970528   61.230867899561922
   15    1  5.53448  4.85000   23.688751331769385   36.185555577868406   17.837981451975718
   16    1  5.53448  4.85000   18.207305704713864   16.181163629807397   80.848668645125073
   17    1  5.43103  4.85000   37.879335920885325   10.938670301419538    9.222750959210057
   18    1  5.43103  4.85000    9.003900276511271   21.615344781019783   58.018221314382387
   19    1  5.43103  4.85000   43.354513746917455   44.908798129654400   74.448717614868073
   20    1  5.43103  4.85000   22.240257816159545   26.896556115104403   80.581359468104239
   21    1  5.43103  4.85000   27.059567770833908   39.142624075856745   80.786511146895009
   22    1  5.43103  4.85000   40.473604389742484   46.954746107618398   26.397234067324447
   23    1  5.43103  4.85000   16.252658621942633   40.056730769629723   45.724120880562204
   24    1  5.43103  4.85000   17.249933901937439   10.595360999325351   33.644540081976963
   25    1  5.32759  4.85000   20.389352669633936   40.881476686513025   88.732734265688919
   26    1  5.32759  4.85000   12.136471082275323   20.004156738263571   26.901200488341672
   27    1  5.32759  4.85000   35.833241094141627   44.642726139360647   14.624917140803303
   28    1  5.32759  4.85000   11.496121601635860   22.250211304959837   79.785485910879643
   29    1  5.32759  4.85000   43.335655374334323   14.904558452823064   71.618510638819075
   30    1  5.32759  4.85000   41.253760772444487   32.155379429011063   23.815557965744667
   31    1  5.32759  4.85000   36.101998506204126   34.683419953650706   84.517556704191975
   32    1  5.32759  4.85000   25.390627247650787    7.406929378460163   12.090214229065767
   33    1  5.32759  4.85000   46.028152015468443   26.161488360584070   91.695934028685272
   34    1  5.32759  4.85000   37.970593589073069    4.430574859217822    4.125078541780468
   35    1  5.32759  4.85000   43.928395977508799    4.645025699138138   51.783381918169113
   36    1  5.22414  4.85000    4.877936395995885   19.039554774027774   70.977668653574966
   37    1  5.22414  4.85000   12.597394812567654   16.464764321235002   10.960858400232077
   38    1  5.22414  4.85000   30.451589152941679   38.579429411981614   94.831151346625461
   39    1  5.22414  4.85000   25.213034725807127   13.279659097688615   72.224817602719966
   40    1  5.22414  4.85000   17.013110988025499   14.199285027385157   74.601263704989449
   41    1  5.22414  4.85000   37.858858382710068    5.677953365763317   61.502754215465757
   42    1  5.22414  4.85000   40.978365291833612   26.366677745794156   52.422103676168085
   43    1  5.22414  4.85000   45.209810933891340    8.176716171301177   60.308310076310995
   44    1  5.22414  4.85000   34.654188203470262   29.985396767518985   32.902937627171390
   45    1  5.22414  4.85000   15.830811846741987    8.009888492317554   79.085649756879150
   46    1  5.22414  4.85000   46.865697463977448    2.732156463939937   29.965801146606964
   47    1  5.22414  4.85000   33.999251268493687   40.078477245786985   54.168570781955069
   48    1  5.22414  4.85000   31.620999981241187    5.511128314646037   28.292148696601526
   49    1  5.22414  4.85000   46.483433404936541   39.684200806810424   53.572241150539817
   50    1  5.12069  4.85000   45.828895699787765   11.952829580588347   90.483370666571233
   51    1  5.12069  4.85000   37.353537578212197    8.752128220195559   32.649554433323459
   52    1  5.12069  4.85000    6.586414820203903   33.984724766354539   10.802777201503956
   53    1  5.12069  4.85000   30.007915125727791   35.302824477272374   74.806427395099234
   54    1  5.12069  4.85000   17.540574307851749   34.250131757261236   95.872941747596911
   55    1  5.12069  4.85000   33.492097519714228   20.071593046964228   65.136096206081746
   56    1  5.12069  4.85000   17.632968066173223    2.969373326549033   12.357836488986063
   57    1  5.12069  4.85000   19.656820960180035   10.399862651149778   12.513524943975812
   58    1  5.12069  4.85000   10.830492161241617   10.637156881043511   47.168915400760191
   59    1  5.12069  4.85000   36.922436514539086   21.013682698850690   38.284250952584195
   60    1  5.12069  4.85000   17.707385226609723   33.865973382307217   41.301498528130871
   61    1  5.12069  4.85000   13.711958459288669   14.848230823635891   31.142046926189501
   62    1  5.12069  4.85000    5.922329537472175   45.810194117438620   49.459458263640165
   63    1  5.12069  4.85000   44.342263193531331   21.890354505245487   52.777314234685811
   64    1  5.12069  4.85000   28.140192964285106   19.118863391679401   16.681669512792599
   65    1  5.12069  4.85000   19.499408664674863   42.239363411217369   68.898823727478899
   66    1  5.12069  4.85000   43.110827190960904   42.332814264314436   11.471178465114217
   67    1  5.12069  4.85000   29.043983547644970   35.785192268010093   12.399789826965767
   68    1  5.12069  4.85000   23.803957008599543   13.245503875328609   53.282759317961769
   69    1  5.01724  4.85000   43.923760862461300   43.434868333796238   97.371331154589399
   70    1  5.01724  4.85000   21.712637664159047   40.888068102044734   61.287954593063695
   71    1  5.01724  4.85000    4.136430987215842   22.187741722684997   61.616965319792328
   72    1  5.01724  4.85000   40.163751023042600   39.195798924136724   84.106867060047705
   73    1  5.01724  4.85000   43.871715695676002   19.943473917480667   85.962719976734704
   74    1  5.01724  4.85000    8.347830558728337    2.830860520179692   15.618680262288800
   75    1  5.01724  4.85000   28.020590458289725   23.407414670647924   72.244531023243383
   76    1  5.01724  4.85000   24.280022093773916   46.813434267177797   57.534804593157055
   77    1  5.01724  4.85000   22.515014971415347    6.167847707421444   64.674679130575299
   78    1  5.01724  4.85000   36.497874933999505   44.453138094837804    2.844864192224296
   79    1  5.01724  4.85000   40.860109936357752    9.528085555430298   65.983545798352480
   80    1  5.01724  4.85000   39.379548597984311    4.751052465014260   16.633758034136704
   81    1  5.01724  4.85000    6.063273535801340   17.021209652363702   43.482277906928559
   82    1  5.01724  4.85000   22.751736441414963    6.190092828624467   56.230920144443232
   83    1  5.01724  4.85000    6.597754769865642    4.946444162531657   84.586941844743549
   84    1  5.01724  4.85000   40.577274415108590   32.818152906613228   53.341047873018098
   85    1  5.01724  4.85000    7.869209435460842   42.996938304833456   88.921361410047624
   86    1  5.01724  4.85000   16.424467785313070   26.044636646813494   57.785650358898422
   87    1  5.01724  4.85000   23.866596212164872   25.626283896765379   18.694921444047552
   88    1  5.01724  4.85000   11.730630269476784   32.989823290984624   18.631596743842209
   89    1  5.01724  4.85000   41.749272095362279   46.109489111515721   81.992218023130135
   90    1  5.01724  4.85000   30.695439591716053   41.093641169752409   26.188148306416331
   91    1  5.01724  4.85000    3.169552698756505   39.472246670156963   24.251354660020581
   92    1  4.91379  4.85000   31.624863413127486   27.985800191986208   11.092309006823495
   93    1  4.91379  4.85000    5.331602265830934   41.339493388767387   54.661075729968267
   94    1  4.91379  4.85000   30.187522529775212   41.759985843866971   64.949052128592868
   95    1  4.91379  4.85000   22.790216762989903   11.786581960625305   29.770249752157444
   96    1  4.91379  4.85000   13.584744236214512   21.453180339489670    7.244685942932149
   97    1  4.91379  4.85000   46.495390771686708   30.726055415264010   54.310229480173255
   98    1  4.91379  4.85000    6.225581847946096    9.457242301282163   56.374683607779211
   99    1  4.91379  4.85000   16.129611102614966   33.489624151483845   60.017124721491058
  100    1  4.91379  4.85000   31.170259293565369   13.354480552042894   80.787262976533697
  101    1  4.91379  4.85000   19.606657698390222   29.184655595194748    7.692440822410370
  102    1  4.91379  4.85000   20.623742386347669   22.808063192590691   31.800147393514301
  103    1  4.91379  4.85000    8.133838292538094    3.076882942265217   24.247938327421846
  104    1  4.91379  4.85000    2.577243543536796    7.196694037439645   74.917879914090690
  105    1  4.91379  4.85000   43.022030392280527    8.135769063959906   25.126085981720166
  106    1  4.91379  4.85000   35.876985660637260   20.619644940366637   82.435754485871044
  107    1  4.91379  4.85000    4.531700247720506   41.033458191999884   92.790326428241357
  108    1  4.91379  4.85000   46.085341556923233   10.788141253506645   46.172694389110198
  109    1  4.91379  4.85000   25.458729216290742   47.226197230726925   28.549525745363301
  110    1  4.91379  4.85000   14.775510196744289   10.571587713913168   89.135930788898236
  111    1  4.91379  4.85000   28.349805176252396   12.322308715573637   96.859301140610498
  112    1  4.91379  4.85000    4.076476257591600   16.320253634499885   13.439179735566324
  113    1  4.91379  4.85000   39.671366613825136    2.624879579623058   39.828828729410240
  114    1  4.91379  4.85000   23.431823975886854   30.078466681897286   29.411886465732916
  115    1  4.91379  4.85000   44.075004859155854   29.023294293898797   19.777012680981528
  116    1  4.91379  4.85000   46.833321266075167   23.354578980392944   65.922506184692892
  117    1  4.91379  4.85000   45.664053402700461   30.955453050906296    5.548470031313010
  118    1  4.91379  4.85000   19.205618220914765   33.555397503141883   29.154309620556170
  119    1  4.91379  4.85000   32.280336990832936   40.485614892501204   47.740002499840294
  120    1  4.91379  4.85000   37.750122166078789   46.811558351228740   64.851564144424998
  121    1  4.81034  4.85000   34.765592795353328   29.325832109402896   17.208119046737004
  122    1  4.81034  4.85000   25.768013196123331   39.927717442331151   35.656847835368566
  123    1  4.81034  4.85000   37.943860716895323   14.901370817823777   50.029228619256763
  124    1  4.81034  4.85000   13.562616722628256    2.882060280226577   70.185444175936667
  125    1  4.81034  4.85000   10.345503748629490   22.491332387457717   32.700733047245848
  126    1  4.81034  4.85000   19.332482251260263   17.803965572934938   91.439393377368546
  127    1  4.81034  4.85000   10.506584176401248   27.035314718678780   14.510993088584565
  128    1  4.81034  4.85000   31.654292780206045   31.590702276659435   39.492989928220062
  129    1  4.81034  4.85000   44.812175938663785   31.192758622121655   66.287826271900229
  130    1  4.81034  4.85000   29.644559385762463   44.810548316984388   59.113186961329639
  131    1  4.81034  4.85000   47.415216890198835    5.382637109905932   34.761152607034511
  132    1  4.81034  4.85000   10.600806877165605   26.404837543150268   64.987312070441220
  133    1  4.81034  4.85000   43.889599313668825   17.165067159767219   63.493182694002705
  134    1  4.81034  4.85000   22.672688698028441   18.831859810344977   65.764634905296518
  135    1  4.81034  4.85000   24.843903312471408   18.150195103421819   11.734701352956570
  136    1  4.81034  4.85000   19.457544044113579   43.828238039279206   53.036154519078359
  137    1  4.81034  4.85000   30.865541938009986   47.364272114659471    7.296350092250128
  138    1  4.81034  4.85000   31.390941099327474   30.948570807024474   25.075542748633964
  139    1  4.81034  4.85000   27.044332763240693   46.559678693413154   37.566223880392045
  140    1  4.81034  4.85000   10.117184267352551    9.898125842094132   74.000659117611505
  141    1  4.81034  4.85000   13.756037933275115   18.275253715227787   39.593052880438343
  142    1  4.81034  4.85000   16.269214798968985   11.336811720320689   18.159934159873156
  143    1  4.81034  4.85000    8.209623698942135   47.392489762327799   40.702616528064340
  144    1  4.81034  4.85000   29.016215029064348   15.547227306393312   48.394978074027890
  145    1  4.81034  4.85000   18.066296158923805   28.240285464206977   85.100773856669775
  146    1  4.81034  4.85000    2.604753135723465    4.445518185609080   12.182940798324875
  147    1  4.81034  4.85000   36.225706268108560   12.178982405195361   42.064090520548589
  148    1  4.81034  4.85000   14.308243297028312   41.233478420631478   96.035320153763777
  149    1  4.81034  4.85000    8.736016026546448   26.412804670644135   42.556835220790781
  150    1  4.81034  4.85000    3.414865791888844   46.974869011916965   18.949497904107773
  151    1  4.81034  4.85000    4.318543972915005   37.343324369508935   18.504415182098811
  152    1  4.81034  4.85000   24.071064335802394   27.834196896833383   36.366081652218760
  153    1  4.81034  4.85000    8.200114239410775   39.754094556998567   71.484386409382296
  154    1  4.81034  4.85000   42.050642172219518   27.072013729315927   84.733368060058623
  155    1  4.70690  4.85000   42.808843691104840    7.527027317546251   77.343401828169903
  156    1  4.70690  4.85000   39.416046252425183   35.727042485318556    6.051690364927529
  157    1  4.70690  4.85000   16.639430868204986   12.660811252155231   68.892560121477132
  158    1  4.70690  4.85000   18.713832315558896    7.157432877844004    7.367226990569979
  159    1  4.70690  4.85000   26.830094134564064   32.930901362046669   39.900933984257037
  160    1  4.70690  4.85000    7.150080503005722   18.293929271995129   89.770380484733593
  161    1  4.70690  4.85000   24.679836541347381   47.283646424764832   69.894270023912725
  162    1  4.70690  4.85000   25.275962370007424   21.981485447582166   82.635621268645906
  163    1  4.70690  4.85000   22.592798719863534   15.163567570761247   60.101483085214369
  164    1  4.70690  4.85000    6.120362596272364    8.599631597205248    3.065082061392140
  165    1  4.70690  4.85000   39.015644201181843   42.959143592161510    7.803640472659046
  166    1  4.70690  4.85000   15.787222744720774   24.129318876655660   87.342412199290152
  167    1  4.70690  4.85000   18.391980616042126    2.460588196692906   60.075945814636320
  168    1  4.70690  4.85000   29.331458772115020   13.503188387102185   27.146434353279460
  169    1  4.70690  4.85000   25.654501914962058   40.068350527409621    2.422771526917442
  170    1  4.70690  4.85000   45.904376795740582   30.706930907404221   46.307788237917698
  171    1  4.70690  4.85000   28.958584413276736   27.113500712107740   44.259149419912561
  172    1  4.70690  4.85000   35.547942262177287   14.057533454403160   63.146871942967358
  173    1  4.70690  4.85000   11.228164469233915   40.218472120094305   79.702181207408515
  174    1  4.70690  4.85000   32.630921123243972   15.441584276280713   92.180631810324357
  175    1  4.70690  4.85000   14.194201083387048   16.488219788642706   51.068965219274780
  176    1  4.70690  4.85000   42.259459009309786   42.087572694907990    4.273094691520928
  177    1  4.70690  4.85000   46.581636795446315   14.787257754510319   55.852083155252799
  178    1  4.70690  4.85000   18.896752122020796   23.827844157092223   63.343178533971987
  179    1  4.70690  4.85000   38.164527404636530   32.141879632737229   62.799818945392154
  180    1  4.70690  4.85000   28.041684830205075    8.693919363627419   48.630236614577392
  181    1  4.70690  4.85000   28.538795312485441   15.826233881834204   59.461055040490862
  182    1  4.70690  4.85000   25.187466464257444    9.802880439067819    5.251663033737962
  183    1  4.70690  4.85000    8.883563436695555   16.683634903465673   97.151179862816178
  184    1  4.70690  4.85000   40.756921587371139   20.629557458990032   48.703763725873088
  185    1  4.70690  4.85000    2.358350106734535    6.937810036174016   51.296831467133948
  186    1  4.70690  4.85000   39.278186508533629   46.695623065866172   35.159954895124706
  187    1  4.70690  4.85000   36.905290507152088   29.827549137240823   46.594514842729474
  188    1  4.70690  4.85000   35.070346244518909    7.368026539247181   89.456752323079925
  189    1  4.70690  4.85000   15.773058748046299   30.935463612043709   65.524693310923055
  190    1  4.70690  4.85000   35.881749766070499   20.726679032751068   88.496070048577820
  191    1  4.70690  4.85000   13.774498949594408   17.001210605309314   83.380761411926400
  192    1  4.70690  4.85000   32.711173195954260   44.486134540657780   74.980407062381303
  193    1  4.60345  4.85000   18.412307704037914   47.269121916596937   87.848068933115357
  194    1  4.60345  4.85000    3.290428276145019   17.445827297691007   76.220385673352695
  195    1  4.60345  4.85000    6.148575401485485   32.613115084641123   37.304286019505369
  196    1  4.60345  4.85000   15.094901329990048   45.097505497215117   30.663523428492162
  197    1  4.60345  4.85000   35.263425184409599   44.387580808992290   88.594967585662175
  198    1  4.60345  4.85000   42.508745792831078   38.416533900734422   61.025949010677330
  199    1  4.60345  4.85000   44.168498765392265   38.330432096218530   69.834182485143387
  200    1  4.60345  4.85000    5.837588219714346    3.216611281694544   68.332864812929529
  201    1  4.60345  4.85000    6.182401663940258    3.789301933815215   38.291009057081453
  202    1  4.60345  4.85000   14.354753917710486   10.542876297107810   53.642515994249464
  203    1  4.60345  4.85000   11.929177838992750   10.193732080032152   16.166687632177755
  204    1  4.60345  4.85000   22.939517493313009   28.671593065577696   63.012996826352328
  205    1  4.60345  4.85000   45.262400747271698   19.047491510867886   79.023678941494964
  206    1  4.60345  4.85000   23.941206934240093   15.868199138960691   89.107981869408746
  207    1  4.60345  4.85000   18.393372960709719   26.511784281641081   44.298283880845574
  208    1  4.60345  4.85000   14.854418476549423   43.138956276032985   13.544720851343541
  209    1  4.60345  4.85000   10.900657005080284   38.015124054400580   94.928742157498036
  210    1  4.60345  4.85000   36.046083172301600   14.819197067983715   97.447564890181027
  211    1  4.60345  4.85000   10.131949106628651   12.931655859887169   67.751648436838281
  212    1  4.60345  4.85000   32.839268752191856   10.240849664896633   37.303383656801977
  213    1  4.60345  4.85000   40.660035535718855   11.061607489322068   17.952174399707523
  214    1  4.60345  4.85000   19.219099443600278    5.149762323365904   52.524970694185882
  215    1  4.60345  4.85000   45.699840496482366   12.406517527289527   33.942816239403939
  216    1  4.60345  4.85000   12.917624932876475   46.342612506669298   56.637215373449365
  217    1  4.60345  4.85000   37.973796278916225   23.574190511019818   96.218143548948476
  218    1  4.60345  4.85000    5.317736618595587   40.078399244633736    3.992734892820931
  219    1  4.60345  4.85000    9.749499018139659   42.671083921424838   52.450095106577137
  220    1  4.60345  4.85000   45.775186138936014    7.963059286023674   19.421581882552644
  221    1  4.60345  4.85000   46.523334259477544   24.648651865180543   28.255043305937367
  222    1  4.60345  4.85000   31.438720988876366   32.755078831376842    2.969724852671515
  223    1  4.60345  4.85000   22.625641809573953   46.022817871917027    7.400922812433036
  224    1  4.60345  4.85000   11.591549697907961   30.160994483204515   42.675194469424582
  225    1  4.60345  4.85000   29.887173233929818   10.406200886035144   75.054041690616359
  226    1  4.60345  4.85000   28.834613621431711   38.102013059177963   20.312973103307634
  227    1  4.60345  4.85000   42.741096029546298   17.648438718204599   37.893746532269560
  228    1  4.60345  4.85000    7.263987312795196   23.832052718330218   69.590847550421529
  229    1  4.60345  4.85000   34.984555296083983   47.317299892674740   59.775475711015943
  230    1  4.60345  4.85000    8.188949345568787   39.158020053523288   29.248824686157388
  231    1  4.60345  4.85000   47.395918094346762   40.321342118451767   61.685105920314022
  232    1  4.60345  4.85000   20.434198532704592    8.727486242796608   70.041879503729348
  233    1  4.60345  4.85000   25.121964783059809   35.872521021921692   75.148933071694316
  234    1  4.60345  4.85000   33.953843864207691   23.509479479683797   47.187593915684978
  235    1  4.50000  4.85000   37.957539310241572   26.830575257678504   59.252497543870518
  236    1  4.50000  4.85000   42.028293218696845   13.379774202966663    3.205167523022559
  237    1  4.50000  4.85000   34.512891879497474   27.637240759910384   51.396566972814263
  238    1  4.50000  4.85000   12.821490549291260   41.480898830794700   39.757645471530253
  239    1  4.50000  4.85000   13.219397820376187   27.477198685222611   82.472850641673716
  240    1  4.50000  4.85000    5.996333648955734   46.950278359700590   26.954101856721309
  241    1  4.50000  4.85000   17.265901273617057   28.686837915644478   29.605855352832510
  242    1  4.50000  4.85000    5.955667931923063   10.609127193325380   65.283601094968077
  243    1  4.50000  4.85000   31.289289643505946   47.749384649761765   34.040047111608786
  244    1  4.50000  4.85000   38.569108447942149   41.648834050317888   37.802692619212721
  245    1  4.50000  4.85000   17.902740572501806   45.528401408284772   48.081776775383489
  246    1  4.50000  4.85000   39.760402962217029   42.719722305583005   22.906590593145449
  247    1  4.50000  4.85000   46.497560243396912   34.499359747152084   79.111774563942532
  248    1  4.50000  4.85000   38.142287111647185   17.836892812975531    2.653368498734240
  249    1  4.50000  4.85000   22.169777273368172   14.021400699918022   94.462661833358183
  250    1  4.50000  4.85000   34.870248371905447   22.716425468088126   77.723066003211571
  251    1  4.50000  4.85000   10.312776815164364    3.602455303966876   78.726447516326360
  252    1  4.50000  4.85000   15.892146701729891   30.049109334686534   12.901041363993276
  253    1  4.50000  4.85000    6.315241661965491   19.712642105938805   82.083139510134089
  254    1  4.50000  4.85000    8.936875540126232   40.175310950480458   13.784671650449683
  255    1  4.50000  4.85000   47.358684246638106   27.035317718912417   76.758828156178495
  256    1  4.50000  4.85000   35.738805118293520   13.565911357261148   25.157105840576161
  257    1  4.50000  4.85000    8.658508673228980   23.630823567920903    5.418464095279421
  258    1  4.50000  4.85000    5.434646793436820   36.467104198325771   50.959493185831001
  259    1  4.50000  4.85000   44.512419098150808   20.117116880272079    8.967918448159811
  260    1  4.50000  4.85000   24.687010163966949   30.838061660357219   89.824864722844907
  261    1  4.50000  4.85000   47.715460146398179   27.259041388332303   10.986289923322333
  262    1  4.50000  4.85000   40.141760630137199    5.643478791207674   29.316543299944495
  263    1  4.50000  4.85000   36.046593555516282   15.795724553674194    9.444776534355103
  264    1  4.50000  4.85000    9.067949564055738   44.939385003205686   19.345840682899343
  265    1  4.50000  4.85000   13.609829517247524   16.328591071064039   65.225776637709018
  266    1  4.50000  4.85000   29.412775089645283   16.539019831459207   31.623045961550567
  267    1  4.50000  4.85000   23.165096486149203    8.774503181082739   42.680120008568835
  268    1  4.50000  4.85000   32.703894465872651   18.809466043716171   96.916680429470333
  269    1  4.50000  4.85000    8.591632478492441   47.045359081714210   36.030708531332024
  270    1  4.50000  4.85000    6.561361613277818   32.808878443393198   70.770120581531671
  271    1  4.50000  4.85000   10.146027112850774   34.726879342843873   52.836860726151578
  272    1  4.50000  4.85000    8.936049965773279   46.749805700767453    8.553837802341448
  273    1  4.50000  4.85000   38.680534766050009    8.488196062078174   93.465891949874717
  274    1  4.50000  4.85000   35.798630105159887   10.365202731640995   49.621335056831626
  275    1  4.50000  4.85000    6.874384567971782   23.536153692460420   78.079887867184226
  276    1  4.50000  4.85000   18.124226532722091   34.189354248823761   84.165504088048621
  277    1  4.50000  4.85000    7.500872432231261   47.143171170732472   56.759875371723588
  278    1  4.50000  4.85000    7.415958437488553   22.320475613606490   10.139966275551627
  279    1  4.50000  4.85000   31.949522208144643   29.238878534739747   67.921840005953328
  280    1  4.39655  4.85000   24.955236375968848   18.803456387923362   46.899174734087993
  281    1  4.39655  4.85000   29.137933801238777   19.348426595033299   22.563981417250673
  282    1  4.39655  4.85000   19.959887821742765   32.590183325546420   55.348375551280959
  283    1  4.39655  4.85000   22.867248476368985   23.686076960795891    9.805228856478008
  284    1  4.39655  4.85000    9.259763967443355   15.818354470442141   58.684230387552425
  285    1  4.39655  4.85000   43.321050892192389   36.164640029003571   65.745641880912302
  286    1  4.39655  4.85000   16.239910402403034   20.585278739304815   14.549426610461087
  287    1  4.39655  4.85000   37.885119826129973   10.049535550326972    3.803930275974794
  288    1  4.39655  4.85000   35.170396815416048   19.184722067762944   69.814561653043555
  289    1  4.39655  4.85000   24.563688641224150   30.754846910271514   74.441345886808847
  290    1  4.39655  4.85000   28.088165240950051   34.093660758497542   88.045782877739470
  291    1  4.39655  4.85000   46.694956138808720   34.110134365961933   10.347529638226897
  292    1  4.39655  4.85000   35.529091179794626    5.498977648263617   22.035855288258194
  293    1  4.39655  4.85000    6.046971725571673   28.157579146175795   58.839827661062913
  294    1  4.39655  4.85000   38.673682426127435   11.592742898620099   37.172332559753080
  295    1  4.39655  4.85000   17.786760652017595   34.114687247482422   33.829450931599531
  296    1  4.39655  4.85000    6.171837105838037   27.952915333704386   82.943774014607300
  297    1  4.39655  4.85000   23.268209831743576   33.660192253080851   25.612105536808599
  298    1  4.39655  4.85000   46.616278794379774   45.479417059931578   28.332013245481235
  299    1  4.39655  4.85000    6.511800232499812   35.753745109508337   91.169222669663256
  300    1  4.39655  4.85000   34.123018950365690   47.526141401783157   25.237249702235093
  301    1  4.39655  4.85000   20.872416442752904   41.205778131223276   78.019187332725210
  302    1  4.39655  4.85000    3.329994005062139    9.547829355768432   46.992772484403780
  303    1  4.39655  4.85000   40.391299755239672   46.772371666169839   41.801113147652835
  304    1  4.39655  4.85000   10.507029106976331   16.124122681010576   15.638951644813060
  305    1  4.39655  4.85000    5.473096549151350    8.569406649049441   14.590576791019165
  306    1  4.39655  4.85000   21.985281384645521    7.864124453404026   89.387495431055697
  307    1  4.39655  4.85000   40.899511440847299   43.534644262877841   54.679570827865099
  308    1  4.39655  4.85000   17.489388332462116   39.425893404821238   23.799337932528228
  309    1  4.39655  4.85000   13.161353680606574    6.760291664727978   25.403571373282066
  310    1  4.39655  4.85000   14.576061194724270   39.116718576934701   64.636639067597059
  311    1  4.39655  4.85000   27.402869332753248    5.886925370263967   94.935232144482143
  312    1  4.39655  4.85000   35.661423151991677    6.521752579837390   80.682345559105130
  313    1  4.39655  4.85000   30.107666897732805   22.427182825081097   94.719157518752397
  314    1  4.39655  4.85000    5.948549762535939    9.378035293205805   41.135694632189399
  315    1  4.39655  4.85000   11.397365516786790   14.408829540541692    6.734674504131732
  316    1  4.39655  4.85000   41.440453370389882   29.782883084980202   41.687541964523277
  317    1  4.39655  4.85000   21.072338925678665   23.093866960707079   37.467219319723206
  318    1  4.39655  4.85000   27.273013694036809   16.922944407133389   65.839161169131941
  319    1  4.39655  4.85000    3.549094092993594   38.822155958795605   77.403646229062886
  320    1  4.39655  4.85000   34.387088549305290   35.242845361696574   78.504183186546030
  321    1  4.39655  4.85000   34.506868853605042   21.662076227486281   17.199334920750463
  322    1  4.39655  4.85000   34.533867337889831   27.084234360993094   89.740375594584108
  323    1  4.39655  4.85000   20.201860348381274   25.545821788061744   48.659974176484667