LAMMPS data file

  6765  atoms

   3 atom types

  0.0000000000000000000  50.0000000000000000000 xlo xhi
  0.0000000000000000000  50.0000000000000000000 ylo yhi
  0.0000000000000000000 100.8333333333333285964 zlo zhi

Atoms # sphere

    1    1  5.94828  4.85000    6.929382727286148   10.288405982210179   72.401280929675366
    2    1  5.94828  4.85000   15.202769485082142   24.871372073952241   80.947558664161136
    3    1  5.84483  4.85000   13.561851871104309    8.898164184039322   44.574227383075836
    4    1  5.84483  4.85000   17.180468080766193   14.964577837061158   55.303897672338948
    5    1  5.74138  4.85000   33.567492089948757    6.955464202048280    4.407134942523309
    6    1  5.74138  4.85000   40.700883152039538    5.128563497460012   36.424232093249813
    7    1  5.74138  4.85000   42.775730509751725   23.551640348749515   94.577271035345333
    8    1  5.63793  4.85000    5.632324524856411   41.824536709547736   31.954139408571535
    9    1  5.63793  4.85000   13.046737876446118   26.750277922685928   12.368578888226493
   10    1  5.63793  4.85000   25.046794928280914   39.829544859660110   62.545237293244270
   11    1  5.63793  4.85000    7.784441669145293    5.037936681139771   63.967619043058853
   12    1  5.63793  4.85000   36.932224573635118   30.396890358042828   27.538384910568372
   13    1  5.53448  4.85000    4.626084985584924   15.107995983872723   41.277228979235595
   14    1  5.53448  4.85000   35.704941167339094   25.457988127762018   66.992143972507193
   15    1  5.53448  4.85000   45.681664136306750   31.359044231342342   81.733101776589123
   16    1  5.53448  4.85000   44.588760077285116   10.614053345303088   37.345308731883051
   17    1  5.53448  4.85000   13.775116564923151   28.020647885576405   52.078004783274274
   18    1  5.53448  4.85000    6.405677795243159   32.317448491774428    8.844958123447933
   19    1  5.53448  4.85000   20.632809437038294    5.434026396573980   77.629712873994663
   20    1  5.43103  4.85000   24.956078092584317   39.773380825303157   94.849359618755585
   21    1  5.43103  4.85000   45.165589844749917   33.592731302073098   47.491672828135464
   22    1  5.43103  4.85000   30.684835085140747   45.480439215321560   90.062084662088893
   23    1  5.43103  4.85000   39.539503949021849   46.721484163594702   58.541893308107547
   24    1  5.43103  4.85000   20.823709372795836   37.810099625634891   10.135620585711747
   25    1  5.43103  4.85000   46.554340122138136   15.897019487585965   76.592709680236112
   26    1  5.43103  4.85000   13.307034432260853   36.219226811136728   95.835739248422442
   27    1  5.43103  4.85000   14.891714086614151   28.422814678585567   38.649649646477535
   28    1  5.43103  4.85000   45.362170575018077   19.272391010307743   66.392341700733411
   29    1  5.43103  4.85000   27.955630741827022   26.035743077973500   72.693291198277890
   30    1  5.32759  4.85000   24.669171794519414   23.688178682011227   35.857874465452333
   31    1  5.32759  4.85000   34.339702405176631   20.300189448368755   52.417482090459224
   32    1  5.32759  4.85000   42.594891176727813   10.492529401301132   96.625783708839791
   33    1  5.32759  4.85000   41.480055198877352    7.677964094337280   20.832643205656424
   34    1  5.32759  4.85000   42.802338124839167   18.053269206930224   28.960095598966582
   35    1  5.32759  4.85000   13.661266885370807    8.474468984974283   72.115298636012781
   36    1  5.32759  4.85000   34.768821416288787    8.424750260064574   49.452286543928608
   37    1  5.32759  4.85000   45.167535105241839   21.914000658453180   60.392311617533053
   38    1  5.32759  4.85000   22.665980660812419   20.432869881216160   11.873723424227965
   39    1  5.32759  4.85000   40.467225138255266   43.577534006895846   23.132906164588682
   40    1  5.32759  4.85000   16.410444403961794   34.385202191748107   69.732697982803188
   41    1  5.32759  4.85000   46.259487354095683    4.971472132655686   70.756764689139217
   42    1  5.32759  4.85000    9.589100876761240    5.499910288482605   90.954742876913897
   43    1  5.22414  4.85000   14.887890265816797   42.213686490559503   20.961884406069526
   44    1  5.22414  4.85000   12.956298816864507   22.332149432594267   67.353978427705101
   45    1  5.22414  4.85000   33.905204633383022   36.933389981090734   85.663495909248567
   46    1  5.22414  4.85000   40.465585777782671   28.396441228388998   44.745965696313313
   47    1  5.22414  4.85000   42.868085840678340   46.457255657949844   80.098896760315498
   48    1  5.22414  4.85000   17.826563791144494   14.599682868448040    5.284178270076705
   49    1  5.22414  4.85000   20.487211758814166    7.473628158000638   93.361819460103320
   50    1  5.22414  4.85000    4.221814410457415   32.647840355584897   22.976642991875437
   51    1  5.22414  4.85000    8.466008697393121   16.427471457201925   76.841194403072862
   52    1  5.22414  4.85000   38.805504876397990   41.350490495744815   29.432463787207759
   53    1  5.22414  4.85000    3.072386428330738   39.771077129788871   44.373688460869971
   54    1  5.22414  4.85000   26.734736730936518   20.900479540824779   89.437697407883263
   55    1  5.22414  4.85000   14.643956804310987    4.015851963894783   87.229073721558223
   56    1  5.22414  4.85000    3.062600693762935    7.640266467132397    7.627673375439574
   57    1  5.22414  4.85000   21.254922722819124    4.017761425715539   29.761213175170390
   58    1  5.22414  4.85000   16.694413895914536   18.702278915490862   21.524685859590825
   59    1  5.22414  4.85000   12.949921603838121   28.257605819053882   23.116397436259724
   60    1  5.22414  4.85000   21.834839448330847   13.235214596197050   73.350153498991332
   61    1  5.12069  4.85000    5.975151299926065   33.635380203044143   67.365346124874392
   62    1  5.12069  4.85000    5.050076613462144   26.158127022849172   36.532950893966607
   63    1  5.12069  4.85000   42.457443383631620   36.666380146934621    5.196205560142426
   64    1  5.12069  4.85000   32.689091029689592   14.188041755598933   49.260945951040618
   65    1  5.12069  4.85000   13.818060578553297   45.216583392353073   48.839074936816587
   66    1  5.12069  4.85000   26.082067896633426    6.335728360982607   64.215520730127807
   67    1  5.12069  4.85000   17.483394171710277   38.969138315589163   51.914246701865281
   68    1  5.12069  4.85000    8.562167050457866   44.663921315937053   40.638291818257876
   69    1  5.12069  4.85000   28.090727089162257   28.781323966054238   62.800037303801574
   70    1  5.12069  4.85000   25.758402759993348   24.934033236335456    8.131259889579994
   71    1  5.12069  4.85000   43.988820827293821   41.088693220566086   19.748829611131733
   72    1  5.12069  4.85000   11.957039141733754    6.030869277507881    5.467778453090134
   73    1  5.12069  4.85000    5.495369308233577   22.138520840145240   25.543987075001901
   74    1  5.12069  4.85000   10.747781413276090   36.555402067874383   59.814268757198683
   75    1  5.12069  4.85000   43.613497499545417   13.794484706049424    9.915445416286245
   76    1  5.12069  4.85000   40.574242683136042   13.236723827994872   57.843680553634286
   77    1  5.12069  4.85000   41.046105221000410   46.342546484991693    3.227941871883054
   78    1  5.12069  4.85000   15.079740553356736    6.632155720892881   12.580578880941985
   79    1  5.12069  4.85000   29.145706140728578   39.377529783670170   49.109507655484926
   80    1  5.12069  4.85000   45.859810456593159   23.622679503735103   45.304862124155576
   81    1  5.12069  4.85000   34.114355802538832   39.822180502993298    6.022604111333602
   82    1  5.12069  4.85000   12.887536692008510   16.537100074059520   81.645914850748895
   83    1  5.12069  4.85000   31.585876677577666   32.781501722549784   77.889375135793117
   84    1  5.01724  4.85000   45.087169594584552   11.017087451206677   44.987270335030509
   85    1  5.01724  4.85000   45.111321004889668   30.404259527541313   40.141905035684736
   86    1  5.01724  4.85000   22.382712490816289   15.130130203113517   60.953322787978806
   87    1  5.01724  4.85000   17.103992589021523   31.837020590393003   60.856265705009761
   88    1  5.01724  4.85000    8.527347613460321   26.056642164559371   60.497787541985701
   89    1  5.01724  4.85000   29.041372972953923   45.574387949067649   44.966163354573197
   90    1  5.01724  4.85000   24.748108681797945   15.575787034444859    4.399908886919757
   91    1  5.01724  4.85000   34.346661991464600   45.581512062303823   73.743895089377261
   92    1  5.01724  4.85000   23.950005118777824   28.148555656783699   22.459523647468409
   93    1  5.01724  4.85000   36.712927731589588   26.472851407142478   54.910039162020752
   94    1  5.01724  4.85000   17.672056857601227   38.079088534736300   43.696544770930323
   95    1  5.01724  4.85000   23.859791651699666   34.146087450481524   76.961466360977951
   96    1  5.01724  4.85000   27.721630385197599   10.259422264160108   90.704357152003922
   97    1  5.01724  4.85000    3.715149517741091   33.870871518192644   30.987218284582383
   98    1  5.01724  4.85000    5.739412760946065   25.921284841911692   41.744790373665168
   99    1  5.01724  4.85000   34.007299673975687    8.626039979672790   55.152113010549222
  100    1  5.01724  4.85000   10.580303482887272   37.282498076182051   38.608590664411999
  101    1  5.01724  4.85000   34.734780738504149    7.318418735984888   87.346319965252391
  102    1  5.01724  4.85000   42.213565365306728    7.871736246301827   75.513357748810265
  103    1  5.01724  4.85000   12.462667651225921   38.977083761266456   89.874086984086887
  104    1  5.01724  4.85000   22.029156411854480   47.240716798286741   86.775772830771146
  105    1  5.01724  4.85000    3.387787215103303   24.979164476497878   78.280302618466635
  106    1  5.01724  4.85000   32.603983051751001   26.319376453731614   92.783123298504478
  107    1  5.01724  4.85000   32.932716335417325   46.181192776063547   48.824288278155876
  108    1  5.01724  4.85000   31.285780677020441   19.998993671131679   42.098757382970284
  109    1  5.01724  4.85000   13.875660673551753   46.759470439431965   15.502385966559240
  110    1  5.01724  4.85000   29.456643924063393   33.398119281811432   88.542433703589197
  111    1  5.01724  4.85000   18.258462400533610   23.553063759469154    3.887712902216235
  112    1  5.01724  4.85000   38.599741892994054   33.474183061464792   60.533017652321647
  113    1  4.91379  4.85000   11.871840494295739   36.166617437675946    7.007017607065205
  114    1  4.91379  4.85000   16.537793503178499   27.315989246887494   97.459818782354731
  115    1  4.91379  4.85000   27.868000488593967   15.920689563136381   95.020737775551183
  116    1  4.91379  4.85000    4.119816229100874   19.120248513662784   83.268573372634407
  117    1  4.91379  4.85000   41.572406410258225   27.781118296697041   16.740427215360484
  118    1  4.91379  4.85000   16.949663266617144   15.323081512917678   45.396562284848891
  119    1  4.91379  4.85000   17.273892365980412   42.477326554962453   72.163204148164994
  120    1  4.91379  4.85000    6.525927714564605   10.833604537625867   57.137028576481583
  121    1  4.91379  4.85000   34.487555343241056   36.596740062912978   47.667192428420734
  122    1  4.91379  4.85000   28.735304507257379   29.464354640662332   57.497171516064526
  123    1  4.91379  4.85000   38.795679836511795   26.432307502491682   91.446599941686827
  124    1  4.91379  4.85000   38.978768907643079   21.732078282920384   88.108860404679419
  125    1  4.91379  4.85000   32.036833108348688   41.045056771438972   41.953281094696713
  126    1  4.91379  4.85000   19.498131805768153   44.398372361978048    6.121150702036482
  127    1  4.91379  4.85000   39.871542025232408   35.980928052728743   86.230216659726807
  128    1  4.91379  4.85000   39.505363530931355   35.136773058412949   12.029503815566173
  129    1  4.91379  4.85000   31.209290526499579   29.284115028024058   18.471114549376267
  130    1  4.91379  4.85000   40.961251609738106   30.765145514706166   84.022478650407677
  131    1  4.91379  4.85000   41.195466737590642   14.245110266950778   48.332111695661951
  132    1  4.91379  4.85000   15.767979653821616   22.537779745144856   51.529975591581653
  133    1  4.91379  4.85000   36.469283831723146   19.380576753591498   43.498759473482991
  134    1  4.91379  4.85000   36.897241136957369   14.363110199256148   23.364262459353395
  135    1  4.91379  4.85000   36.663374783408457   35.285541033361255   72.600954023073001
  136    1  4.91379  4.85000   10.470196650778902   24.672110244327826   40.127993539830960
  137    1  4.91379  4.85000   32.903623537010155   41.493823378847303   61.350439423935356
  138    1  4.91379  4.85000   44.473904007721018   28.236731646817269   12.153223269737254
  139    1  4.91379  4.85000   23.965019091115490   31.549365450698811   45.084290813442308
  140    1  4.91379  4.85000   46.866744880165555    3.988350186233116   49.003635096735252
  141    1  4.91379  4.85000   11.603825654344806    2.475186903975444   38.605973845059331
  142    1  4.91379  4.85000   10.176759156015345   27.348573058146922   32.720943444031811
  143    1  4.91379  4.85000   42.257735627837398   20.296379588193815   33.642945046493487
  144    1  4.91379  4.85000    2.643978165861519    4.736357225585033   62.235485535529634
  145    1  4.91379  4.85000   37.177330391864757   41.243586064630051   14.399334626400844
  146    1  4.91379  4.85000   12.987537241260302    8.648095132733367   61.349324198185080
  147    1  4.91379  4.85000   33.321225037427787   29.349701087079840   62.569056190132379
  148    1  4.81034  4.85000   19.901967170560315    4.378735021534433    5.751077409483003
  149    1  4.81034  4.85000   21.902144894270112   30.643172652472511   83.509448692071018
  150    1  4.81034  4.85000   30.297879019103334   14.703795251229137   43.996216090517613
  151    1  4.81034  4.85000   42.990494131906672    8.549620675820393   31.264518433792794
  152    1  4.81034  4.85000    2.522438582876754   37.883415744435773   71.331801369699065
  153    1  4.81034  4.85000   13.195515087665301    8.997614227546183   52.844234746818572
  154    1  4.81034  4.85000   36.677061440899166   17.025902497711687   74.781773402936238
  155    1  4.81034  4.85000   41.290988068431695   28.800426630473758   63.038873301511970
  156    1  4.81034  4.85000   17.635980713777311   35.228498732774270   79.158037409825440
  157    1  4.81034  4.85000   32.263694163882448   34.871848630088600   43.226914806414634
  158    1  4.81034  4.85000   16.962830762329542   46.281346401102226   39.998999118046193
  159    1  4.81034  4.85000    7.304391135577395   29.327750863708616   78.235669202710440
  160    1  4.81034  4.85000   24.992620439131986   21.841731626295598   84.808624105050754
  161    1  4.81034  4.85000   28.433294296575617   40.306707531768460   30.296319464823430
  162    1  4.81034  4.85000   31.940225162361173   21.177217888266316   75.748255350038448
  163    1  4.81034  4.85000   34.263343901358176   46.317995930227461   27.253310347591970
  164    1  4.81034  4.85000    9.218353407559020   37.059375939038894   74.330801050281721
  165    1  4.81034  4.85000   43.625503646147671   22.951763631250369   23.787027930734414
  166    1  4.81034  4.85000   24.859503269178248   17.696876116617027   53.061570327751177
  167    1  4.81034  4.85000   27.910608436462901   13.385007685177408   23.574911351868472
  168    1  4.81034  4.85000   35.299167308404002   16.591990842413878    4.839502944059606
  169    1  4.81034  4.85000   42.716216498101183   40.688731775160718   13.518063740560974
  170    1  4.81034  4.85000    3.715554063097914   43.437858615983394   60.772218954565830
  171    1  4.81034  4.85000   35.244597804707382   45.968742225249606   64.190430308087670
  172    1  4.81034  4.85000    3.053855090502510   41.697565741303727   53.649819606268871
  173    1  4.81034  4.85000    7.066815227208533   16.883136970019496   15.214288469095004
  174    1  4.81034  4.85000    5.157729512700934   46.750775375773031   82.584036449738576
  175    1  4.81034  4.85000   42.428421184531331    2.764733146022829   56.030803111731501
  176    1  4.81034  4.85000   20.353809944009846   16.534859982176016   76.956749317347317
  177    1  4.81034  4.85000   44.956314618063040   22.308937896317399   54.918577762540615
  178    1  4.81034  4.85000   37.250956583505854   30.469412318205855   80.628554496629917
  179    1  4.81034  4.85000   40.070944106078713   41.813466731754652   81.963045137138266
  180    1  4.81034  4.85000   14.569617925920197   20.459518021519138   35.942254580359133
  181    1  4.81034  4.85000   24.850479932410462   43.102567290755069   86.319108243663365
  182    1  4.81034  4.85000   18.771758642060103   45.807528246093810   17.470991530986669
  183    1  4.81034  4.85000   14.011859471931459   20.243269309035110   30.435905086231557
  184    1  4.81034  4.85000   16.382773635446881   37.238810665573503   59.588926964681860
  185    1  4.81034  4.85000    4.110553424951044   14.527158599571637   46.462821826348168
  186    1  4.81034  4.85000   13.791309030534133    3.030049076676949   60.851475582811659
  187    1  4.81034  4.85000   46.287168775635486   45.215258483077733   88.470189306967839
  188    1  4.81034  4.85000   31.930326857548064    3.124066082201646   33.229806383373592
  189    1  4.70690  4.85000   35.032286720590974   11.456019692101318    7.107248720303433
  190    1  4.70690  4.85000    5.262296542263297   34.320708274618731   80.645583818375854
  191    1  4.70690  4.85000   11.997796540123799   18.326030059279923    8.712161463458759
  192    1  4.70690  4.85000   31.215957376770142   33.355735470883268   23.299924911601355
  193    1  4.70690  4.85000    3.463699595156852   13.817924148977340    6.000639408376033
  194    1  4.70690  4.85000   16.028493501126341   22.730893410735433   93.344103909592476
  195    1  4.70690  4.85000   34.736978984418720   17.099893747816260   58.667618003593304
  196    1  4.70690  4.85000   31.664549152483577   32.254986098210331   84.351582930818481
  197    1  4.70690  4.85000   17.977857559654844   30.214370419047363   46.530306933484376
  198    1  4.70690  4.85000   26.231052871780761   43.484366975963162   70.706581114422661
  199    1  4.70690  4.85000    9.827356701228039   36.825276832329770   45.982067733047160
  200    1  4.70690  4.85000   36.112301309395157   22.745857927445694   10.698092482718453
  201    1  4.70690  4.85000    7.508837641125867    5.359792634898987   41.759247213387937
  202    1  4.70690  4.85000   26.877474456946452    6.928522529217929    4.926522684902286
  203    1  4.70690  4.85000   19.817024637621142    3.289561638224681   72.702645036452083
  204    1  4.70690  4.85000    4.403086446918847   19.018855720961049   60.251359778167235
  205    1  4.70690  4.85000   14.134844253201269    9.928453603503009   93.886560514291503
  206    1  4.70690  4.85000   29.091028372912827   16.820902976563687   37.376676349653515
  207    1  4.70690  4.85000   18.477392617167169    4.118922318958301   40.709317686124599
  208    1  4.70690  4.85000   29.365521037164726   15.141413489583041   60.669945456011540
  209    1  4.70690  4.85000   12.309337916253053   21.406762388910320   15.423649733893058
  210    1  4.70690  4.85000   38.256308993667197   33.409804219492180    5.774724981003676
  211    1  4.70690  4.85000   20.226525605457017   40.631000510745174   80.414507644937629
  212    1  4.70690  4.85000   28.589067031546708    9.951729020109990   97.598287136776747
  213    1  4.70690  4.85000   38.200421119240829   32.038994477046096   37.967773253313347
  214    1  4.70690  4.85000   35.884556513296474   22.332654752717172   61.391961403844512
  215    1  4.70690  4.85000   17.720112290217219   23.808156623257982   45.392757594317423
  216    1  4.70690  4.85000   45.855581144232580   26.355880416662075   76.844756581390286
  217    1  4.70690  4.85000    6.246260707593425    2.779862895681110   52.163521625998477
  218    1  4.70690  4.85000   46.071272056298135   16.996876978273633   15.355228272124270
  219    1  4.70690  4.85000   42.222507562567699    4.915120252355928   12.624932812566685
  220    1  4.70690  4.85000    9.446001358841766   13.631358923804360   26.469693968220280
  221    1  4.70690  4.85000   29.409254617204908   18.505685130908230   10.811225042676829
  222    1  4.70690  4.85000   15.988099384080291    8.062539154135010   23.164783188414287
  223    1  4.70690  4.85000   19.427934610359507   23.816630841450845   22.897968844566009
  224    1  4.70690  4.85000   45.122277778751673   41.898282260258625   35.204743900596334
  225    1  4.70690  4.85000   27.193100044211324   34.709632346473263   81.776530824030743
  226    1  4.70690  4.85000   21.564323640234075   13.623142562103787   18.799278191234038
  227    1  4.70690  4.85000   26.189382675355333   29.877439237728652   92.568673344547364
  228    1  4.70690  4.85000   21.392268962907014   23.231141302815480   68.404912455476094
  229    1  4.70690  4.85000   21.834515195933680    4.075614183886417   17.534554823689387
  230    1  4.70690  4.85000   40.243935511312991   46.798731749774447   96.720260825201422
  231    1  4.70690  4.85000    3.528939780720316   34.646107119287798   55.679091546354954
  232    1  4.70690  4.85000    6.435501302612776   25.858784299413166   48.039587591162487
  233    1  4.70690  4.85000   13.648690656241435   34.695660550480916   33.988685633434017
  234    1  4.70690  4.85000   32.669349785079127   15.788475625521473   65.770497637761878
  235    1  4.70690  4.85000    3.596004689441691   27.310351257453139   95.438648493327960
  236    1  4.60345  4.85000   28.099050363519840   25.640518996841905   14.374617437318541
  237    1  4.60345  4.85000   27.892818824995672    9.901054926312304   33.495395486344563
  238    1  4.60345  4.85000    5.492859295583811   13.659872802727300   23.104238003019045
  239    1  4.60345  4.85000   21.237788602254152    9.946536408426093   62.571189052596374
  240    1  4.60345  4.85000   11.332568428106928   14.739898786005888   13.657416510734972
  241    1  4.60345  4.85000   47.362946671041207   39.057567298921846   90.041747277252270
  242    1  4.60345  4.85000   13.347773716134814   47.136845601793262   75.141817827653981
  243    1  4.60345  4.85000   21.237112464440099   25.609482979553849   62.055656197693118
  244    1  4.60345  4.85000    7.392972369199676   22.750030076167089   53.749568415022850
  245    1  4.60345  4.85000   11.975351878723480   15.500591237267699   73.405031360627575
  246    1  4.60345  4.85000   38.145265834966303   20.003077127158324   95.758229271164026
  247    1  4.60345  4.85000   13.967510101968401   33.830697626318091   39.490046394925194
  248    1  4.60345  4.85000    6.043896461985430   10.572284563115506   91.251434230237734
  249    1  4.60345  4.85000   24.812776111743734   28.463757912573836   76.984397934053334
  250    1  4.60345  4.85000   27.191044165318459   42.209116790580055    6.309882125865643
  251    1  4.60345  4.85000   42.597343275494289   37.930172837315602   80.039645722832930
  252    1  4.60345  4.85000    9.990448618219006   31.243195711892845   69.162977921177813
  253    1  4.60345  4.85000   35.906080242047608   23.820245089842619   39.670341341528733
  254    1  4.60345  4.85000   37.058156372125978    3.920954431655248    7.695829331583850
  255    1  4.60345  4.85000    6.739942025052446   41.460654322002853   88.355645281202129
  256    1  4.60345  4.85000    2.340958850127356   39.010847605978199   37.063714891355602
  257    1  4.60345  4.85000    4.608432364694525   20.277263910776693   49.784407231888885
  258    1  4.60345  4.85000   10.595790042380791   20.633953148779497   26.371390908951838
  259    1  4.60345  4.85000   39.186630728794952    4.126544417280476   46.828198784774266
  260    1  4.60345  4.85000   33.353419324119706   38.966677437914001   19.453000005980659
  261    1  4.60345  4.85000   41.687894208619262   46.778223610708508   49.110588363504462
  262    1  4.60345  4.85000   12.055578712634880   47.348844565310571   31.960021390857090
  263    1  4.60345  4.85000   18.925718361582753   38.958060383906947   29.342481483454307
  264    1  4.60345  4.85000   24.411575292185301   25.226368071688341   88.036485109121656
  265    1  4.60345  4.85000    7.236031173863540   44.519020932929529    2.909580678676162
  266    1  4.60345  4.85000   38.980543916728877   33.924322370844962   95.028426143162733
  267    1  4.60345  4.85000   32.537637842346555    4.890323986996586   40.785113332897225
  268    1  4.60345  4.85000   29.151806444053193   10.398099226679506   65.513170849719529
  269    1  4.60345  4.85000   22.264409213938759   42.104989110709823   36.069293645651143
  270    1  4.60345  4.85000   19.465911931800790    7.097510853895149   84.334823310253128
  271    1  4.60345  4.85000   10.318573183037294   43.350740784308222   34.033621056022568
  272    1  4.60345  4.85000   41.240467127162184   35.060621198766214   56.536483852499494
  273    1  4.60345  4.85000    8.370457080479198   22.739548148391705   92.673267984009712
  274    1  4.60345  4.85000   16.131077413667587   13.152753347706387   73.075528638548292
  275    1  4.60345  4.85000   19.590897683746679   32.061804296104150    4.378538888674177
  276    1  4.60345  4.85000    2.305922846332617   28.692265596769595   44.676967226147021
  277    1  4.60345  4.85000   13.228665086697394   30.195633701199267   17.100047088456773
  278    1  4.60345  4.85000   30.906943251741506    9.724711956932573   81.153611296812272
  279    1  4.60345  4.85000    4.087761720207789   39.009151050697646   21.418096934628366
  280    1  4.60345  4.85000   47.444690914379429   17.507173336276342   53.507969479110081
  281    1  4.60345  4.85000   43.104593767375690   28.456960357746485    7.415439073855839
  282    1  4.60345  4.85000    7.794977835196215   35.237775213412462    3.262349712575856
  283    1  4.60345  4.85000   47.524060397577585   42.386701858714680   46.247741334518828
  284    1  4.60345  4.85000    9.150050126434493   31.749410387635177   92.291242051597365
  285    1  4.60345  4.85000   43.516055347356257   39.545351229753727   93.352082814486820
  286    1  4.60345  4.85000   36.221251104028461   44.393517045242049   88.909234724348295
  287    1  4.60345  4.85000   37.400479193711647   44.602817951614568   33.567190030488838
  288    1  4.50000  4.85000   46.260333513971517   14.752188795969671   89.040160784407306
  289    1  4.50000  4.85000   38.644841070482833    9.886403762123251   33.684126460366983
  290    1  4.50000  4.85000   19.971641245419349   44.451436388876736   64.400370404934023
  291    1  4.50000  4.85000    2.655709166241349    4.074185914680791   39.187773001581952
  292    1  4.50000  4.85000   11.211027857504151   20.896520948451712   72.712046083069907
  293    1  4.50000  4.85000    4.407675351308182    9.199827919295446   80.152940403940505
  294    1  4.50000  4.85000   43.125607465211189   33.464862819982471   67.917124457807674
  295    1  4.50000  4.85000   26.164327927112044    4.565374057614712   41.288563987140641
  296    1  4.50000  4.85000   26.327480056874837   23.894774948192232   26.194873981732311
  297    1  4.50000  4.85000   10.762321655323353   37.403043866474263   84.577500686256769
  298    1  4.50000  4.85000   22.444006891413917   32.511505194528013   63.817497392905409
  299    1  4.50000  4.85000    8.867165442600147   28.274481656380992   73.344452080267061
  300    1  4.50000  4.85000    2.992529379814810   13.615422248375049   59.650121416775143
  301    1  4.50000  4.85000    3.428340926302123   17.132649416156472   78.909344757579774
  302    1  4.50000  4.85000   45.954222742286518   41.257601158009358   81.436307632336778
  303    1  4.50000  4.85000   23.179371240785937   14.091011436718928   94.707706749905654
  304    1  4.50000  4.85000   40.300933105742885    3.362188563366333   61.287702510760191
  305    1  4.50000  4.85000   11.753023656127844   29.385229972279014   65.135119445141299
  306    1  4.50000  4.85000    2.770824234279455    4.361640670768688   32.281450158481285
  307    1  4.50000  4.85000   32.689382072604509   36.701780432179334   32.399886902511604
  308    1  4.50000  4.85000   38.818103630072947   28.190578552124734   34.387908151603156
  309    1  4.50000  4.85000   38.747638280154895   10.090585677021627   11.448440058512375
  310    1  4.50000  4.85000   32.205188302303682    7.852085780902465   61.533423680512712
  311    1  4.50000  4.85000   12.734545931755232   42.431318163939622   77.702155528144203
  312    1  4.50000  4.85000   17.580333052590582   21.864122109177274   57.785694528446143
  313    1  4.50000  4.85000   27.257097865263507    6.358322439814628   50.372334026225872
  314    1  4.50000  4.85000    6.387897127419268   31.582244347927588   46.545155731838292
  315    1  4.50000  4.85000    7.551138900199602   19.696271945389469   88.180475684210535
  316    1  4.50000  4.85000   38.423685508919853   17.115015847205775   54.296679874712623
  317    1  4.50000  4.85000   37.721793536932573   40.312703853417609   51.611322325580957
  318    1  4.50000  4.85000   44.214811972490118   12.067348676754847   61.552234124037419
  319    1  4.50000  4.85000   12.788321923165352    9.494419342335734   38.204388458127760
  320    1  4.50000  4.85000    3.524070437359070   36.865834998037521   93.031101268484349
  321    1  4.50000  4.85000   31.033645784057615   41.436502115762060   13.252019286100845
  322    1  4.50000  4.85000   27.365587815938738   43.338066991511283   20.037166665731228
  323    1  4.50000  4.85000   10.662500489945336   46.558170011726432   81.584918120878385